LAMMPS (29 Sep 2021)
OMP_NUM_THREADS environment is not set. Defaulting to 1 thread. (src/comm.cpp:98)
  using 1 OpenMP thread(s) per MPI task
boundary p p p
atom_style full
units metal
variable THERMO_DAMP equal 0.1
variable BARO_DAMP equal 0.5

read_data ThUO2-5x5x5.lmpstruct
Reading data file ...
  triclinic box = (-13.670000 -13.670000 -13.670000) to (13.670000 13.670000 13.670000) with tilt (0.0000000 0.0000000 0.0000000)
  2 by 2 by 2 MPI processor grid
  reading atoms ...
  1500 atoms
Finding 1-2 1-3 1-4 neighbors ...
  special bond factors lj:    0        0        0       
  special bond factors coul:  0        0        0       
     0 = max # of 1-2 neighbors
     0 = max # of 1-3 neighbors
     0 = max # of 1-4 neighbors
     1 = max # of special neighbors
  special bonds CPU = 0.003 seconds
  read_data CPU = 0.013 seconds

variable O equal 1
variable Ce equal 2
variable Th equal 3
variable U equal 4
variable Np equal 5
variable Pu equal 6
variable Am equal 7
variable Cm equal 8

set type $O charge -1.1104
set type 1 charge -1.1104
Setting atom values ...
  1000 settings made for charge
set type ${Ce} charge 2.2208
set type 2 charge 2.2208
Setting atom values ...
  0 settings made for charge
set type ${Th} charge 2.2208
set type 3 charge 2.2208
Setting atom values ...
  250 settings made for charge
set type ${U} charge 2.2208
set type 4 charge 2.2208
Setting atom values ...
  250 settings made for charge
set type ${Np} charge 2.2208
set type 5 charge 2.2208
Setting atom values ...
  0 settings made for charge
set type ${Pu} charge 2.2208
set type 6 charge 2.2208
Setting atom values ...
  0 settings made for charge
set type ${Am} charge 2.2208
set type 7 charge 2.2208
Setting atom values ...
  0 settings made for charge
set type ${Cm} charge 2.2208
set type 8 charge 2.2208
Setting atom values ...
  0 settings made for charge

#change_box ortho
kspace_style pppm 1.0e-5

variable SR_CUTOFF equal 11.0

pair_style hybrid/overlay coul/long 11 eam/alloy
pair_coeff   *    *    coul/long
pair_coeff   *    *    eam/alloy  CeThUNpPuAmCmO.eam.alloy  O Ce Th U Np Pu Am Cm

fix boxrelax_fix all box/relax aniso 0.0 vmax 0.001
thermo 1
thermo_style custom step cpu press etotal lx
min_style cg
min_modify line quadratic dmax 0.05

#Perform minimization
minimize 1.0e-25 1.0e-25 1000 10000
WARNING: Using 'neigh_modify every 1 delay 0 check yes' setting during minimization (src/min.cpp:188)
PPPM initialization ...
  using 12-bit tables for long-range coulomb (src/kspace.cpp:340)
  G vector (1/distance) = 0.30130697
  grid = 32 32 32
  stencil order = 5
  estimated absolute RMS force accuracy = 0.00013341462
  estimated relative force accuracy = 9.2651323e-06
  using double precision FFTW3
  3d grid and FFT values/proc = 12167 4096
Neighbor list info ...
  update every 1 steps, delay 0 steps, check yes
  max neighbors/atom: 2000, page size: 100000
  master list distance cutoff = 13
  ghost atom cutoff = 13
  binsize = 6.5, bins = 5 5 5
  2 neighbor lists, perpetual/occasional/extra = 2 0 0
  (1) pair coul/long, perpetual
      attributes: half, newton on
      pair build: half/bin/newton/tri
      stencil: half/bin/3d/tri
      bin: standard
  (2) pair eam/alloy, perpetual, copy from (1)
      attributes: half, newton on
      pair build: copy
      stencil: none
      bin: none
Per MPI rank memory allocation (min/avg/max) = 9.403 | 9.406 | 9.409 Mbytes
Step CPU Press TotEng Lx 
       0            0    57863.916   -20029.505        27.34 
       1 0.0075762272    50929.029   -20031.579    27.367339 
       2  0.014730215    44099.094    -20033.42    27.394678 
       3  0.022029161    37374.386   -20034.978    27.422016 
       4  0.029178143    30753.108   -20036.287    27.449355 
       5  0.036534071    24232.176   -20037.359    27.476693 
       6  0.044170141    17788.621    -20038.21    27.504031 
       7  0.051862001    11469.179   -20038.773    27.531369 
       8  0.059727192    5245.6208   -20039.113    27.558706 
       9  0.074630022   -259.21349   -20039.216    27.583247 
      10  0.089384079    2488.8715   -20053.927    27.558455 
      11    0.1041162   -123.32578   -20053.948    27.571899 
      12   0.11894011    37.935567   -20053.957    27.583561 
      13   0.12639403    3902.1628   -20055.138    27.556221 
      14   0.13405108   -1890.3861    -20055.27    27.580565 
      15   0.14964914   -7332.4667   -20055.397    27.602486 
      16   0.16477418   -8674.3978   -20055.835    27.602646 
      17   0.17210913   -3029.1833   -20056.054    27.579278 
      18   0.18613315    53.202601   -20056.084    27.568419 
      19   0.19996905   -18.694125   -20056.086    27.575182 
      20    0.2070961     5084.102   -20056.324     27.55825 
      21   0.21438503   -710.23892   -20056.569    27.581717 
      22   0.22126102    1058.1635    -20056.61    27.554377 
      23   0.23508501     1130.135   -20056.617    27.547346 
      24   0.24876118   -786.06918   -20056.635    27.566029 
      25     0.262851   -21.897837   -20056.641    27.573015 
      26   0.27723122     476.7974   -20056.642    27.567572 
      27     0.291224   -403.16879    -20056.65    27.560077 
      28      0.30513   -1522.3993   -20056.851    27.587267 
      29   0.31894112    141.99659   -20056.861    27.576923 
      30   0.33139706    12.621336   -20056.862    27.571473 
      31    0.3440752   -909.47137   -20056.865    27.577368 
      32   0.35661507    126.48847    -20056.93    27.602715 
      33   0.36290717     499.9862   -20056.997    27.575375 
      34   0.37544823   -139.35601   -20056.998    27.575395 
      35   0.38797021    10.278082   -20056.999    27.571703 
      36    0.4014802    2300.3419   -20057.037    27.573376 
      37   0.41503501   -324.08999   -20057.078    27.587184 
      38     0.428689   -18.979549   -20057.085    27.572383 
      39   0.44237804     121.7229   -20057.085    27.571927 
      40     0.456038   -130.96809   -20057.092    27.583968 
      41   0.47110605    294.17626   -20057.107    27.571938 
      42   0.48601818   -10.760553   -20057.108     27.57272 
      43   0.77628922   -10.760553   -20057.108     27.57272 
Loop time of 0.77634 on 8 procs for 43 steps with 1500 atoms

98.5% CPU use with 8 MPI tasks x 1 OpenMP threads

Minimization stats:
  Stopping criterion = linesearch alpha is zero
  Energy initial, next-to-last, final = 
     -20029.5051862689  -20057.1077206252  -20057.1077206252
  Force two-norm initial, final = 1278.6578 0.99195612
  Force max component initial, final = 738.08049 0.52629103
  Final line search alpha, max atom move = 8.1207185e-09 4.2738613e-09
  Iterations, force evaluations = 43 106

MPI task timing breakdown:
Section |  min time  |  avg time  |  max time  |%varavg| %total
---------------------------------------------------------------
Pair    | 0.42714    | 0.44916    | 0.48932    |   2.9 | 57.86
Bond    | 1.359e-05  | 1.9521e-05 | 2.8372e-05 |   0.0 |  0.00
Kspace  | 0.12289    | 0.16297    | 0.18474    |   4.8 | 20.99
Neigh   | 0          | 0          | 0          |   0.0 |  0.00
Comm    | 0.010714   | 0.01109    | 0.011348   |   0.2 |  1.43
Output  | 0.00082541 | 0.00099137 | 0.0020909  |   0.0 |  0.13
Modify  | 0          | 0          | 0          |   0.0 |  0.00
Other   |            | 0.1521     |            |       | 19.59

Nlocal:        187.500 ave         233 max         157 min
Histogram: 1 0 3 0 0 3 0 0 0 1
Nghost:        4559.50 ave        4590 max        4514 min
Histogram: 1 0 0 0 3 0 0 3 0 1
Neighs:        62750.0 ave       77674 max       52746 min
Histogram: 1 0 3 0 0 3 0 0 0 1

Total # of neighbors = 502000
Ave neighs/atom = 334.66667
Ave special neighs/atom = 0.0000000
Neighbor list builds = 0
Dangerous builds = 0
unfix boxrelax_fix

variable T equal 300.0

velocity all create $T 160278
velocity all create 300 160278
timestep 0.002

# Set-up thermostat
fix thermostat_fix all npt temp $T $T ${THERMO_DAMP} aniso 0.0 0.0 ${BARO_DAMP}
fix thermostat_fix all npt temp 300 $T ${THERMO_DAMP} aniso 0.0 0.0 ${BARO_DAMP}
fix thermostat_fix all npt temp 300 300 ${THERMO_DAMP} aniso 0.0 0.0 ${BARO_DAMP}
fix thermostat_fix all npt temp 300 300 0.1 aniso 0.0 0.0 ${BARO_DAMP}
fix thermostat_fix all npt temp 300 300 0.1 aniso 0.0 0.0 0.5

thermo_style custom step temp press etotal lx vol
thermo 10

neigh_modify delay 0 every 1 check yes

run 25000
PPPM initialization ...
  using 12-bit tables for long-range coulomb (src/kspace.cpp:340)
  G vector (1/distance) = 0.30089371
  grid = 32 32 32
  stencil order = 5
  estimated absolute RMS force accuracy = 0.00013633607
  estimated relative force accuracy = 9.4680161e-06
  using double precision FFTW3
  3d grid and FFT values/proc = 12167 4096
Per MPI rank memory allocation (min/avg/max) = 8.284 | 8.284 | 8.284 Mbytes
Step Temp Press TotEng Lx Volume 
      43          300    2950.2555   -19998.981     27.57272    20961.201 
      50    130.63804    5504.9118   -19998.688    27.586188     20992.91 
      60    160.26914   -6859.3885   -19997.863    27.643313    21129.173 
      70    149.41286   -3795.3456   -19997.079    27.624911    21090.948 
      80    109.01254    9125.4209   -19995.832    27.574259    20969.382 
      90    148.41928   -1432.4615   -19994.767     27.62188    21070.328 
     100    178.80798    -7834.657   -19993.119    27.648678    21130.889 
     110    173.89644     6015.882    -19991.51    27.589009    20997.158 
     120    173.71994    4167.1475   -19989.849    27.595216    21017.583 
     130    187.82973   -7502.6608   -19987.945     27.64843    21140.637 
     140    183.86926    -145.3248   -19986.233    27.618399    21070.557 
     150    185.46284    6777.4028   -19984.154    27.585477     20999.13 
     160    188.09243   -2385.4072   -19982.408    27.632687     21102.04 
     170    173.53232   -5197.4656   -19980.403    27.652498    21139.135 
     180      208.199    3822.3433   -19978.406    27.606497    21038.597 
     190    215.29414    3246.5222   -19976.243    27.606675    21043.709 
     200    220.63447    -4612.846   -19974.003    27.644664    21129.568 
     210    216.89669   -196.71098   -19971.903     27.63097    21095.504 
     220    211.04158    3818.1651   -19969.725    27.618454    21058.613 
     230    231.35462   -2053.8352   -19967.502    27.644901     21116.67 
     240      244.153   -2306.7083   -19965.225    27.643235    21121.102 
     250    244.10455    3322.7816   -19962.927     27.61615    21068.482 
     260      240.163    396.80573   -19960.794    27.628293    21101.291 
     270     237.6743   -2977.4925   -19958.521    27.649665     21143.96 
     280     258.9782    933.21845   -19956.333    27.639342    21106.644 
     290     264.7978    2215.9154   -19954.028    27.634994    21096.388 
     300    277.84789   -2340.8245   -19951.823    27.648478    21139.641 
     310    274.60375   -491.23074   -19949.782    27.638073     21123.07 
     320    282.89433    2867.7824   -19947.787    27.628024    21095.175 
     330    284.78089   -1272.0477    -19945.88    27.654448    21142.198 
     340    285.96126   -2410.7688    -19943.96    27.664247    21155.965 
     350    300.96613     2604.114   -19942.181    27.639047    21105.037 
     360    300.68159    1294.2365   -19940.601    27.640593    21123.869 
     370    298.17224   -3635.3779    -19939.06    27.660152    21175.694 
     380    296.37154    1106.3136   -19937.721    27.645284     21135.04 
     390    305.49941    2466.0562   -19936.427    27.643376    21117.972 
     400    309.74033   -2037.8782   -19935.251    27.664657    21167.894 
     410     317.4161   -1303.9091   -19934.233    27.655324    21167.354 
     420    326.96927    1829.7855   -19933.548    27.633917    21126.113 
     430    316.32084    1204.5189   -19933.307    27.649768    21136.366 
     440    308.53963   -2483.0631   -19933.302    27.679964    21178.645 
     450    301.07358   -140.14005   -19933.452      27.6654    21156.762 
     460    305.71605    1963.5924   -19933.627    27.636656    21126.411 
     470    319.70404   -386.38075   -19933.969    27.639776    21148.923 
     480    321.56132   -1724.6523   -19934.537    27.657284    21163.805 
     490    311.32533    1445.0901   -19935.478    27.661523    21133.998 
     500    313.56764    712.27715   -19936.612    27.664366    21137.218 
     510    298.51412    -1542.987   -19937.771    27.655448    21163.577 
     520    301.74923   -39.274758   -19938.893    27.632321    21148.732 
     530    299.56461    1446.2776   -19939.953    27.634927    21132.452 
     540    294.25978   -1295.0864   -19940.938    27.668695    21151.066 
     550    287.88272   -127.91297   -19941.812    27.671456    21138.466 
     560    294.86052     1405.372   -19942.515     27.64227    21121.738 
     570     288.1856   -909.62572   -19943.019    27.629099    21143.825 
     580    283.70661   -639.84004    -19943.38    27.632423    21143.184 
     590    296.06012    1368.7551     -19943.6    27.644942    21122.029 
     600    302.57542   -804.09837   -19943.699    27.665398     21135.33 
     610    289.32184   -142.39805   -19943.744     27.65564    21133.927 
     620    297.44789    979.32347   -19943.781    27.631928    21124.321 
     630    298.16929   -856.13278   -19943.724    27.636512    21139.095 
     640    287.08693   -213.28211   -19943.575    27.653019    21135.736 
     650    284.17025    942.54513   -19943.306    27.663473    21125.015 
     660    291.88284   -254.02585   -19942.802    27.660395    21138.198 
     670    285.07692   -747.10437   -19942.123    27.642626    21147.783 
     680    292.01474    233.37966   -19941.305    27.629991     21134.59 
     690     310.6372    984.56519   -19940.407    27.637996    21124.954 
     700    299.81174    -389.5869   -19939.648    27.668311    21145.621 
     710    300.04621   -1199.8558   -19938.848     27.68081    21155.797 
     720    304.51819    1175.9139   -19938.149    27.649702    21133.315 
     730    307.79162    277.17914   -19937.539    27.629619    21138.235 
     740    295.07661   -622.14727   -19936.964    27.639973    21155.985 
     750    303.81374   -564.09082    -19936.47    27.660426     21152.46 
     760    305.39715    1287.6354   -19936.017    27.670993    21135.489 
     770    298.69206     171.8277    -19935.53    27.672804    21156.939 
     780     316.8081   -2583.6513   -19935.164    27.656187    21175.906 
     790    319.33679    1637.1626   -19935.017    27.623064    21130.246 
     800    318.63419    1686.0205   -19935.118    27.636067    21124.042 
     810    303.23843   -1343.9287    -19935.61    27.681946    21167.904 
     820    306.57605   -1889.4064   -19936.097    27.687662    21171.959 
     830    305.77934    1983.8539   -19936.713    27.643785    21125.374 
     840    301.43289    1501.9651   -19937.439    27.625386    21132.702 
     850    304.78091   -2948.7043   -19938.101    27.649719    21177.137 
     860    307.26968   -705.79525   -19938.969    27.658215    21142.942 
     870    294.20916    3941.7518   -19939.669    27.652153     21095.95 
     880     303.8509   -1132.1623    -19940.45    27.665308    21148.153 
     890    298.54046   -3161.1347   -19941.252    27.653399    21172.982 
     900    297.62456    2214.6833   -19941.917     27.61959    21113.619 
     910    291.92325    2290.8216   -19942.604    27.636079    21111.501 
     920    297.22235   -3300.5748   -19943.205    27.680786    21168.173 
     930    286.60653   -434.84885   -19943.584    27.666063    21142.529 
     940     285.2213    3116.6508   -19943.854    27.627402    21104.254 
     950    287.69344   -981.75892   -19943.972    27.631844    21145.316 
     960    289.14394   -2652.3346    -19943.82    27.650427    21158.725 
     970     286.7256    2755.4474   -19943.621    27.649759    21106.685 
     980     288.7535    1095.6287   -19943.144    27.660785    21124.979 
     990    296.69092   -3465.4828   -19942.478    27.663945     21171.15 
    1000    292.90657    952.25793   -19941.869    27.629477     21129.44 
    1010    292.44351    2488.1704   -19940.969    27.625713    21110.454 
    1020    310.24996   -2206.8704   -19940.243    27.661711    21152.907 
    1030    306.30545   -561.00324   -19939.523    27.666596    21143.488 
    1040    299.31965    2016.5633   -19938.803    27.650249    21121.074 
    1050    293.17036   -539.36138   -19938.281    27.648332    21149.338 
    1060    299.26917    -1606.387   -19937.584    27.647415    21161.994 
    1070    302.57715     1294.667   -19936.904    27.644622    21134.203 
    1080    318.44513    358.29794   -19936.338    27.657382    21137.735 
    1090    313.45029   -1070.2538    -19935.86     27.66481    21153.443 
    1100    307.18642    522.69623   -19935.787    27.649606    21140.033 
    1110    302.87013    996.51425   -19935.839     27.64016    21139.445 
    1120    302.59921   -1479.2805   -19935.881    27.651191    21162.626 
    1130    305.31026    -491.1195   -19936.027    27.654251    21148.462 
    1140    300.50378    2222.1126   -19936.106    27.651836    21125.079 
    1150    312.50196   -793.94758   -19936.379     27.66263    21155.831 
    1160    324.18647   -2636.5916   -19936.879    27.654736    21160.871 
    1170    315.43002    3453.4441   -19937.592    27.630056    21107.881 
    1180    309.08484   -191.26731   -19938.659    27.649809     21137.11 
    1190    306.56978    -2872.481     -19939.7    27.665492    21163.764 
    1200    289.48988    2073.8461    -19940.68    27.644177    21119.284 
    1210    278.09414    1282.0788   -19941.462    27.642022    21127.443 
    1220    291.06153   -2954.4161   -19941.971    27.655606    21162.966 
    1230    293.46688      714.088   -19942.328    27.643022    21124.525 
    1240    286.29358    3036.4539   -19942.529    27.639739    21109.888 
    1250    295.20106   -3142.7076   -19942.572    27.666344    21166.396 
    1260    299.74742    -1148.845   -19942.573    27.655089    21144.514 
    1270    302.99877    3488.6789   -19942.458    27.629294    21092.941 
    1280    298.66069   -64.489148   -19942.462     27.64325    21134.317 
    1290    295.23388   -3394.9394   -19942.389    27.660165    21172.951 
    1300     288.3569    1592.7583    -19942.26    27.646779    21123.916 
    1310    290.57485    2239.9267   -19941.989    27.646932     21113.66 
    1320    293.52421   -2594.5878   -19941.564    27.661008    21162.359 
    1330    290.14361   -890.01918   -19940.997    27.646968    21145.722 
    1340     294.2504    3112.8511   -19940.306    27.633572    21105.555 
    1350    298.71348    -464.2585   -19939.627    27.655352     21144.98 
    1360    297.17266   -2956.3852   -19938.866    27.667891    21173.742 
    1370    307.93074    1490.7307   -19938.132    27.643561    21124.067 
    1380    304.98543    2447.3713    -19937.45     27.63635    21114.207 
    1390    314.86484   -2698.8621   -19936.976    27.657797    21165.692 
    1400    313.27638   -467.61105   -19936.683    27.651377    21151.311 
    1410    303.82707    2335.1764   -19936.555    27.641516    21122.661 
    1420    304.89699   -885.87844   -19936.592    27.658013    21151.918 
    1430    305.46893   -1755.5141   -19936.662    27.659436    21159.907 
    1440    302.94112     1967.897   -19936.811    27.637837    21124.072 
    1450    306.62692    846.38013   -19937.002    27.642815    21140.538 
    1460    311.22177   -3521.4084   -19937.281    27.662543    21173.607 
    1470    312.62182    1798.2287   -19937.909    27.643489    21115.715 
    1480    310.23541    3113.1676   -19938.579    27.639951    21106.551 
    1490    303.31613   -3722.1996   -19939.363    27.666697    21178.131 
    1500    291.81861   -1149.4686   -19940.222    27.649414    21154.094 
    1510    295.30738     3847.122   -19940.788    27.626438     21096.36 
    1520    284.97673   -173.18217    -19941.38    27.655624    21141.888 
    1530     291.0967   -4202.5895   -19941.667    27.675245    21180.132 
    1540    297.65333    2305.9148   -19941.853    27.641371    21110.398 
    1550     294.4111    2892.9412   -19941.991    27.626028    21100.689 
    1560    295.55902   -2846.5179   -19942.025    27.653026    21167.939 
    1570    291.62185   -2003.5762   -19942.028    27.664067    21158.322 
    1580    294.24025    3456.7313   -19941.924    27.643562    21095.746 
    1590    304.20037    738.64714   -19941.723     27.64587    21124.598 
    1600    296.33435   -3578.3298   -19941.479    27.654457    21175.432 
    1610    292.07007    839.51558   -19941.269    27.638225    21132.195 
    1620    298.18192    2704.5134   -19940.881    27.642823    21106.455 
    1630    295.14215   -1393.2064   -19940.631    27.666925    21154.039 
    1640    299.39389   -2483.3751   -19940.143    27.659721    21164.095 
    1650    292.41237    2770.4726   -19939.608    27.631059    21113.443 
    1660    300.30914    888.46492   -19939.138    27.641785    21130.206 
    1670    307.65816   -2968.4657   -19938.592    27.665997    21169.449 
    1680    301.32622    779.27395   -19938.179    27.654036    21134.916 
    1690    296.26203    2357.7061   -19937.765    27.641244    21119.873 
    1700    312.64501   -1946.3192   -19937.355    27.654489     21165.56 
    1710    303.32193   -1404.0321   -19937.073    27.656006    21161.588 
    1720    303.04601     2364.707   -19936.849    27.645692    21119.052 
    1730    314.42383    98.571448   -19936.762    27.655458    21135.823 
    1740    314.26073   -1695.0976   -19936.869    27.658912    21158.922 
    1750    307.00645    981.96448   -19937.199    27.643919    21138.212 
    1760    313.72413    75.342245   -19937.679    27.644898    21137.549 
    1770    300.57883   -395.64695   -19938.273     27.65484    21144.749 
    1780    296.64531    421.29029   -19938.898    27.660529    21141.116 
    1790    293.35731    -471.9981   -19939.392    27.662903    21148.581 
    1800    305.48621   -592.32667    -19939.85    27.649915    21140.451 
    1810    292.30101    1942.1853   -19940.317    27.635904    21121.808 
    1820    292.79925   -1193.5461    -19940.69    27.651775    21150.321 
    1830    300.71357   -1336.2859   -19940.982     27.65562    21146.746 
    1840    298.23007    2557.6832   -19941.271    27.642011     21111.77 
    1850    296.64089   -205.58755   -19941.516    27.648533    21141.628 
    1860    292.74123   -2523.0962   -19941.679    27.651694    21166.852 
    1870    292.31156    1062.4515   -19941.905    27.635326    21120.237 
    1880    295.20718     2813.923   -19941.924    27.637329    21103.698 
    1890    293.69542   -2190.8837    -19941.85    27.668097    21164.333 
    1900    293.00096   -2385.8292   -19941.699     27.66249    21165.807 
    1910     296.4454    3008.3243   -19941.384    27.623697    21103.105 
    1920    295.90101    1255.5564   -19941.087    27.632326    21119.286 
    1930    290.81811   -3001.7297   -19940.698    27.665474    21170.003 
    1940    306.67387    -334.5715   -19940.238      27.6577    21138.922 
    1950    303.37057    3540.9521   -19939.776    27.639679    21104.114 
    1960    300.62648   -1887.6157   -19939.409    27.651159    21157.596 
    1970    293.91408   -2285.0945   -19939.074      27.6461    21161.606 
    1980    301.68477    3573.3268   -19938.733    27.634311    21107.164 
    1990    294.34175    136.63363   -19938.329    27.662496     21145.31 
    2000    302.81335   -4101.1206   -19937.839    27.675417    21185.194 
    2010    317.12209    2164.3519   -19937.508    27.633867    21118.388 
    2020    316.61062    3284.3517   -19937.323    27.623612    21108.548 
    2030    301.00129   -3793.6284   -19937.406    27.663922    21185.524 
    2040    301.78659   -1524.7386   -19937.607    27.665448    21161.579 
    2050    313.49465    4344.8905   -19937.745    27.639469    21096.674 
    2060    305.53633   -585.60783   -19938.219    27.650644    21145.712 
    2070    297.19783   -3420.9472   -19938.589    27.660614    21181.966 
    2080    295.31001    1804.8685   -19939.051    27.637854    21126.951 
    2090    296.59095    2298.5091   -19939.431    27.639944    21117.701 
    2100    299.23627    -2992.136   -19939.659    27.668645     21169.16 
    2110    298.19151   -719.63872   -19939.959    27.656698    21144.432 
    2120    300.65621    3654.8764   -19940.199    27.631255     21099.82 
    2130    300.08939   -1131.2555   -19940.498    27.647682    21149.753 
    2140    298.18639   -3145.1373   -19940.778    27.658843    21170.259 
    2150    295.29961     3084.201   -19941.006    27.644163    21111.524 
    2160    298.41704    833.55226   -19941.225    27.658022    21130.138 
    2170    295.32597   -3250.0681   -19941.373    27.666917     21171.27 
    2180    288.90345    973.81976   -19941.444    27.637898    21129.044 
    2190    290.73509    2703.8874   -19941.388    27.635693    21112.438 
    2200    296.88898   -2462.6326   -19941.193    27.669488     21163.43 
    2210    294.82425   -1234.4471   -19940.938     27.66064    21150.559 
    2220    303.63832    3085.0425   -19940.667    27.630142    21102.964 
    2230    297.84869   -8.0466198   -19940.337    27.639109    21138.066 
    2240    300.30266   -3404.9463   -19939.971    27.657947    21171.819 
    2250    297.74235    2003.6741   -19939.604    27.649187    21118.371 
    2260    307.60996    2263.8066   -19939.181    27.650968    21116.042 
    2270    305.39456   -3308.3402   -19938.862    27.664075     21172.38 
    2280    298.02304   -67.486334    -19938.61    27.640296    21144.391 
    2290     304.1941    2881.0214   -19938.346    27.626221    21112.139 
    2300    297.19543   -1255.8631   -19938.137    27.660392     21154.91 
    2310    305.64961   -1650.9573   -19937.879    27.680282    21166.193 
    2320    310.30476    1080.1523   -19937.729    27.662133     21130.09 
    2330    301.96534    1577.3015   -19937.613    27.639525    21127.396 
    2340    298.82426   -1838.7226    -19937.51    27.639741    21164.553 
    2350    307.14611   -939.33379   -19937.527    27.641962    21150.334 
    2360    312.96195    2673.8162   -19937.535    27.645533    21114.468 
    2370    306.23225   -684.68463   -19937.806    27.671564    21148.304 
    2380    302.15361   -2438.2681    -19938.25      27.6726    21165.664 
    2390    299.26782     2410.745    -19938.88    27.635961     21121.83 
    2400    297.96744    523.76884   -19939.646    27.633837    21135.983 
    2410    298.84658   -3101.3343   -19940.274    27.652067    21163.472 
    2420     303.3216    1963.4215   -19940.875    27.644824    21114.582 
    2430    291.95172    2148.1301   -19941.431    27.651835    21115.449 
    2440    303.52994   -3560.9057   -19941.785    27.663025    21168.391 
    2450    279.55626    479.38956   -19942.066    27.641096    21135.377 
    2460    292.41203     2253.583   -19942.052    27.635389    21108.849 
    2470    288.62775   -998.79442   -19941.877    27.653296    21144.035 
    2480    301.95635   -1757.7162   -19941.704     27.65841    21149.861 
    2490    294.67274    2330.4627   -19941.417    27.643705    21114.196 
    2500    298.33591    275.70473   -19941.103    27.643399    21137.451 
    2510    293.94038   -2570.3989   -19940.756    27.650731    21167.697 
    2520    302.90639    993.81429   -19940.354    27.645273     21130.11 
    2530    302.75754    1911.7534    -19939.97    27.653415    21117.461 
    2540    298.70762   -1664.5456   -19939.662    27.666238    21156.725 
    2550    300.09297   -906.95741   -19939.324    27.648256    21153.339 
    2560    302.93988    1409.0589   -19939.018    27.630403    21124.394 
    2570    304.62568    407.00569   -19938.752    27.643762    21132.737 
    2580    304.94191   -1017.6161   -19938.583     27.66692    21152.522 
    2590    298.85357   -298.27499   -19938.548    27.666876     21145.38 
    2600    308.58569    700.21452   -19938.455     27.64266    21127.043 
    2610     293.4606    1237.5237   -19938.422    27.631618    21134.368 
    2620    306.00525   -2443.5989   -19938.428    27.649497    21167.322 
    2630    310.78947    75.045106    -19938.46    27.658519    21138.251 
    2640    308.30362    2846.5802   -19938.726    27.660799     21110.71 
    2650    295.17531   -1636.7188   -19939.337    27.664291    21158.556 
    2660    288.88641   -2142.3471   -19940.127    27.640418    21166.773 
    2670    287.12485    2462.7142   -19941.172    27.615351     21114.45 
    2680    291.54099    1137.7644   -19941.978    27.651173    21126.269 
    2690    296.90133    -3206.544   -19942.497    27.698847      21168.4 
    2700    296.59405    617.98425   -19943.013    27.666579    21127.052 
    2710    296.01519    3353.8927   -19943.182    27.612193    21102.284 
    2720    290.86253   -2710.7737   -19943.347    27.619932    21163.642 
    2730     289.6713   -2150.8205   -19943.473    27.646348    21154.825 
    2740    289.47586    4311.9999   -19943.178    27.665182    21089.791 
    2750    291.62624   -157.03243   -19943.093    27.686728    21134.071 
    2760    288.08822   -4452.0783   -19942.622    27.659332    21177.383 
    2770    285.00934    2951.0278   -19941.954    27.596331    21108.062 
    2780    298.49957    2418.8415    -19941.45    27.614787    21110.457 
    2790    294.79999   -3717.0837   -19940.684     27.69077     21179.08 
    2800    301.68944   -535.60257   -19940.257      27.6969    21149.829 
    2810    307.97362     3449.012   -19940.033    27.640738    21104.605 
    2820    301.99636   -957.99369   -19939.766    27.617954    21150.881 
    2830    300.22287   -2829.6181   -19939.723    27.633528     21172.46 
    2840    299.17818    2056.9271   -19939.632    27.651988    21120.849 
    2850    302.44118    1615.1578   -19939.508    27.677314    21122.242 
    2860    302.83615   -2142.4347   -19939.615    27.675723    21165.009 
    2870     297.9184   -899.12682   -19939.556    27.632292    21151.563 
    2880    299.07531    2215.2725   -19939.499    27.614309    21116.594 
    2890    299.46277    136.92363   -19939.531    27.654966    21141.127 
    2900    299.68968   -2438.7174   -19939.378    27.686078    21164.931 
    2910    297.83259    1234.9102   -19939.351    27.660628    21128.046 
    2920     302.7621     1356.626    -19939.27    27.630672    21120.258 
    2930    296.81649   -755.95364   -19939.152    27.632599    21152.451 
    2940    301.64176   -1704.8906   -19939.031    27.653956    21160.171 
    2950    302.74887    1299.4549   -19938.785    27.661765    21124.157 
    2960    305.87686    1288.1369   -19938.559    27.658837     21125.34 
    2970     298.1238   -1799.0543   -19938.353    27.649311    21157.215 
    2980     305.0171    28.013722   -19938.038    27.631093    21144.408 
    2990    307.46481    1044.0641   -19937.739    27.636797    21130.659 
    3000    303.33995   -265.48363   -19937.465    27.665735    21145.971 
    3010    319.75655   -1080.9784   -19937.277    27.673214     21149.87 
    3020    305.01305    1380.5624   -19937.368    27.647092    21129.773 
    3030    303.51215   -177.62139   -19937.541    27.634145     21143.13 
    3040    301.74911   -775.38743   -19937.811    27.643465    21153.279 
    3050    293.38039    796.58236   -19938.161    27.665018    21144.827 
    3060    302.92937   -1098.3034   -19938.472    27.680181    21148.971 
    3070    290.55122    1153.7978   -19938.832    27.656567    21133.935 
    3080      304.308   -236.24807    -19939.16     27.63093    21141.812 
    3090    304.66842   -977.99352   -19939.509    27.628783    21145.822 
    3100    303.77227     1179.878   -19940.035    27.646923    21126.671 
    3110    303.47393    207.56988   -19940.644    27.675198    21135.841 
    3120    299.92433   -1244.0186   -19941.261    27.676543    21151.233 
    3130    288.82579    549.18236   -19941.774    27.641076    21136.205 
    3140     295.3929    485.32533    -19942.06     27.62457    21133.002 
    3150    298.11051   -920.84014   -19942.248     27.64326    21142.639 
    3160    296.48182    449.23698   -19942.369     27.65953     21129.27 
    3170    289.99143    959.39524   -19942.419    27.663056    21127.494 
    3180    300.57579   -1541.0898   -19942.389    27.655171    21146.977 
    3190    286.47648    721.01386   -19942.253    27.633422    21134.475 
    3200    288.51517    157.40733    -19941.98    27.638044    21135.363 
    3210    295.10084   -408.97682   -19941.612    27.657803    21140.637 
    3220    298.91068    325.92727   -19941.198    27.663845    21137.901 
    3230      289.219   -400.52634   -19940.785    27.655278    21142.908 
    3240    299.86112    129.30936   -19940.425    27.634222     21136.73 
    3250    300.85605    585.43002   -19940.119    27.630623    21134.227 
    3260    295.87515   -339.86073   -19939.954    27.655917     21146.27 
    3270    302.27199   -757.83662   -19939.815    27.670595    21146.776 
    3280    297.89972    740.73302   -19939.672    27.654017    21130.331 
    3290    301.65918    424.33651   -19939.559    27.634707    21132.695 
    3300    298.80562   -804.07883   -19939.432      27.6332    21147.738 
    3310    306.07861   -44.455757    -19939.38    27.646827    21141.523 
    3320    299.09831    705.37955   -19939.376    27.664574    21132.338 
    3330    299.20678    -259.0638   -19939.363    27.670536    21141.964 
    3340    295.63862   -230.78889   -19939.326    27.653852    21148.486 
    3350    295.35795   -239.17754   -19939.203    27.633331    21146.157 
    3360    304.55374    105.13544   -19939.061    27.631548     21134.86 
    3370    305.66785    801.65378   -19938.954    27.653307    21130.089 
    3380    301.92524   -417.80654   -19938.822    27.675603    21147.087 
    3390    310.76718   -1170.1572   -19938.821    27.663059    21150.085 
    3400     301.8206    1370.6753   -19938.947    27.625131    21124.531 
    3410    305.93161    621.60692   -19939.161    27.624014    21133.839 
    3420    298.35736   -1660.2636   -19939.606     27.65973    21161.225 
    3430    290.30193    19.360923   -19940.111    27.672305    21144.755 
    3440    295.19442     1275.098   -19940.591     27.65563    21124.262 
    3450    294.04269    25.672258   -19941.122    27.639925    21139.998 
    3460    305.90788   -1691.5293   -19941.503    27.635204    21157.528 
    3470     296.3037    353.46692   -19941.981    27.639031    21130.793 
    3480    293.71622    2036.7308   -19942.425    27.658489    21112.771 
    3490    293.35615   -1085.6796   -19942.702     27.67765    21149.682 
    3500    282.07129   -1882.5268   -19942.936     27.65645    21158.146 
    3510    293.65906    1928.4156   -19942.955    27.613386    21113.728 
    3520    291.99804    1163.8824   -19942.782    27.622485    21120.497 
    3530    287.70598   -2389.8963   -19942.524     27.67252    21160.753 
    3540    289.91187     248.3721    -19941.99    27.679737    21138.829 
    3550    300.19096    1858.8449   -19941.314      27.6504    21121.225 
    3560    296.11692    -1529.182   -19940.626    27.632544    21152.921 
    3570    300.49885   -287.15533    -19939.95    27.625521     21147.75 
    3580    302.36707    1065.3937   -19939.588    27.647756    21130.626 
    3590    304.45722   -400.76283   -19939.319    27.680554     21140.44 
    3600    301.40903    -214.9558   -19939.163    27.671386    21143.126 
    3610    295.83449    238.32257   -19939.144    27.636481    21139.466 
    3620     301.3825     130.0988   -19939.008    27.624279    21141.309 
    3630    301.00391   -756.42479   -19938.947    27.648048    21146.134 
    3640    300.47747    729.02278   -19938.917    27.669091    21133.023 
    3650    295.65217    804.21647   -19938.828    27.670079    21138.773 
    3660    304.10145   -1798.2334   -19938.875    27.653109    21160.801 
    3670    304.19646   -17.913221   -19938.841    27.620738    21137.685 
    3680    307.33053    2069.3266   -19938.821    27.623387    21116.665 
    3690     297.2999   -613.02055   -19939.042    27.670293    21151.529 
    3700    306.19799   -2694.3601    -19939.11    27.686567    21164.751 
    3710    298.09276    2717.8032   -19939.387    27.643199    21112.629 
    3720    295.35276    963.19342   -19939.692    27.624365    21129.054 
    3730    304.45233   -3120.9658    -19939.91    27.643794    21170.068 
    3740    297.96737     780.3136   -19940.395    27.651347    21131.836 
    3750     305.1514    2124.5089   -19940.878    27.657674    21111.721 
    3760    293.54579   -1284.3366   -19941.473    27.665037     21150.81 
    3770    287.82681   -1672.3264   -19942.143    27.641916    21153.894 
    3780     293.7364    1961.7596   -19942.588    27.614304    21111.421 
    3790    292.84629    848.70802   -19942.897    27.643065    21125.125 
    3800    284.81838   -2367.9515   -19943.018    27.685066    21161.962 
    3810    297.50591   -158.78805   -19943.021    27.666243    21130.758 
    3820    293.58162    3066.5208   -19942.951    27.626434     21101.28 
    3830    289.96602   -1581.6333   -19942.757    27.630341    21150.046 
    3840    292.72445   -2248.5158   -19942.338    27.645251    21157.104 
    3850    301.64807    2730.7449   -19941.778    27.649729     21107.04 
    3860    292.51043    829.35425   -19941.082    27.666422    21127.859 
    3870    293.02553   -2625.5807   -19940.295     27.66641    21169.466 
    3880    292.25622    320.17277   -19939.557    27.632796    21142.487 
    3890    301.37968    1397.5265   -19938.848     27.62085    21121.707 
    3900    299.69117   -201.41818   -19938.492    27.651183    21141.449 
    3910    309.88774   -1405.5954   -19938.327    27.674719     21152.91 
    3920    306.76678    643.27941   -19938.279    27.657941    21129.203 
    3930    305.13116    1529.1097   -19938.373    27.634236    21124.149 
    3940    301.19859   -1004.8532   -19938.529    27.635072    21159.392 
    3950    309.02398   -2202.2805   -19938.704    27.648955    21163.132 
    3960    307.69648     1982.417   -19938.996    27.649269    21111.689 
    3970    297.49416    2146.1135   -19939.393    27.655288    21114.043 
    3980    293.83047   -2829.2561   -19939.772    27.668602    21172.096 
    3990    304.11042   -1698.4451   -19940.148    27.643618    21151.789 
    4000    298.38989     4117.272   -19940.377    27.614873    21092.908 
    4010    299.72333   -614.29482   -19940.744     27.64699     21139.02 
    4020    294.57546   -3289.1208   -19941.027    27.674677    21170.612 
    4030    288.08492    2255.1431   -19941.212      27.6508    21117.893 
    4040    289.89398    1588.2579   -19941.251    27.635762    21122.798 
    4050    300.83275   -3020.5729   -19941.148    27.645064    21167.033 
    4060    301.76043    318.50368   -19941.094    27.640635    21132.603 
    4070    302.37277    2635.5066   -19941.001    27.647582    21107.734 
    4080    292.74206   -1389.1002   -19940.876    27.668959    21153.099 
    4090     290.1939   -1804.2313   -19940.644    27.656346    21161.236 
    4100    304.08785    1540.4741   -19940.238    27.624205    21119.533 
    4110    298.04515    1144.2381   -19939.654    27.630363    21120.995 
    4120    304.40138   -1295.3608   -19939.034    27.663937     21152.89 
    4130     299.8508   -239.72364   -19938.425    27.671504    21151.563 
    4140    299.81607    524.11474   -19937.772    27.653012    21142.597 
    4150    307.44407   -188.00541   -19937.221    27.638274    21145.392 
    4160     311.3457   -166.91213   -19936.883    27.639735    21142.068 
    4170    306.58741     827.3998   -19936.723    27.651742    21139.398 
    4180    301.78667   -1085.7111   -19936.708    27.664372     21153.22 
    4190    307.09519    78.214344   -19936.724    27.652729    21141.338 
    4200    309.64804    1279.4652   -19936.836    27.641856    21132.375 
    4210    307.44777   -1332.3344   -19937.065    27.653672    21154.402 
    4220    311.05481   -478.38292   -19937.396    27.656178    21143.458 
    4230    303.61391    2295.3601   -19937.807    27.652402    21123.181 
    4240    298.56665   -1423.6257   -19938.222    27.658013    21159.666 
    4250     310.9082   -1857.5313    -19938.59    27.642626    21157.122 
    4260    301.00314    3133.5648    -19938.91     27.62872    21110.538 
    4270    305.22202   -244.36924   -19939.239    27.664948    21140.089 
    4280    301.31758   -2734.6759    -19939.48    27.684877     21165.62 
    4290    289.78553    2030.3509   -19939.684    27.647572     21122.37 
    4300    303.48732    1188.6618   -19939.754    27.623552    21126.128 
    4310    300.19944   -2493.9521     -19939.8    27.636312    21163.511 
    4320    293.32538    581.44247    -19939.87    27.651112    21140.123 
    4330    297.99037    1129.2103   -19939.799    27.671445    21124.347 
    4340    301.33579   -516.37528   -19939.769    27.673363    21141.123 
    4350     299.0748   -246.06951   -19939.725    27.641342    21147.013 
    4360    305.78354   -91.844134    -19939.65    27.617799    21143.474 
    4370    297.68855    225.82616   -19939.713    27.634799    21137.103 
    4380    303.74449    159.03462   -19939.715    27.673889    21137.241 
    4390    298.99202   -379.88065   -19939.759    27.684223    21141.541 
    4400     300.2612    351.72642   -19939.848    27.649318    21137.547 
    4410    297.34092    47.537067   -19939.903    27.619947    21141.591 
    4420    299.84338   -652.75799   -19940.021    27.627413    21145.917 
    4430    289.89012    561.93526   -19940.093    27.657582    21136.171 
    4440    306.64643   0.49403471   -19940.094    27.681155    21137.151 
    4450    293.90032     93.87167   -19940.156    27.667883    21144.294 
    4460    295.23274   -967.48674   -19940.104    27.633773    21148.451 
    4470    292.50808     1028.837   -19939.991    27.613559    21129.804 
    4480    301.10946    417.51495   -19939.855    27.642653    21134.328 
    4490    305.18104   -1203.0492    -19939.55    27.684835    21152.792 
    4500    304.28977   -89.714661   -19939.325    27.676724    21140.055 
    4510    307.60179    1534.3102    -19939.19    27.633235    21122.889 
    4520    303.38734   -477.46732   -19939.142    27.617279    21145.935 
    4530    293.61515   -1361.0218   -19939.156    27.639019    21158.946 
    4540    301.91937    681.84141   -19939.043    27.669564    21133.264 
    4550    297.00995    1390.0984   -19938.931    27.683573    21126.695 
    4560    308.85488   -1278.4358   -19938.894    27.663541    21154.778 
    4570    307.27653   -917.93853   -19938.821    27.624664    21151.374 
    4580    301.15857    1476.9195   -19938.925    27.616472    21124.682 
    4590    304.70365     144.7129   -19939.052    27.656487    21135.624 
    4600    297.20677   -1238.6669   -19939.256    27.685683    21150.495 
    4610    295.06332    859.02795   -19939.594    27.661257    21134.053 
    4620    295.26318    189.07457   -19939.793    27.627383    21136.232 
    4630     295.2978   -636.35634    -19939.98    27.624204    21147.437 
    4640     293.9072   -161.16753    -19940.09    27.650813    21142.656 
    4650    300.88484    707.88214   -19940.117     27.68119    21132.154 
    4660    308.72658   -190.78478    -19940.32    27.679283    21138.829 
    4670    294.90746   -460.86757   -19940.515    27.640608    21143.466 
    4680    299.58324    473.92989   -19940.763    27.612517    21135.203 
    4690    296.33518    -2.631009    -19941.11    27.632505     21137.85 
    4700    294.01248   -229.12021   -19941.353    27.675477    21142.915 
    4710     291.5063   -45.061851   -19941.607    27.686339      21140.7 
    4720    292.58735    23.982875    -19941.78    27.652135    21136.264 
    4730    299.43621    53.171386   -19941.845    27.617039    21131.689 
    4740    291.86383     363.1342   -19941.938    27.619314    21131.128 
    4750    290.42549   -52.623919   -19941.852    27.653965    21141.229 
    4760    298.53607   -741.60808   -19941.684    27.682322    21145.665 
    4770    295.58782    210.23341   -19941.422    27.668973    21131.082 
    4780    296.55114    1098.8359   -19940.988    27.629668    21123.786 
    4790    299.67831    -704.5719    -19940.49    27.618875    21144.157 
    4800    294.00291   -656.82153   -19939.847    27.641187    21149.164 
    4810    305.96603    409.99127   -19939.141    27.669714    21133.636 
    4820    310.10557    649.21743   -19938.624    27.675902    21130.845 
    4830    302.31058   -327.12872   -19938.242    27.653675     21147.39 
    4840     300.0039   -895.54811   -19937.984    27.629115    21152.488 
    4850    302.83189    794.23389   -19937.831    27.629204    21133.113 
    4860    306.82043    669.14471   -19937.698     27.65734    21134.423 
    4870    302.13084   -1057.2203   -19937.695    27.678786    21154.718 
    4880    306.36488   -469.90558   -19937.727    27.658919     21145.27 
    4890    297.13934    1809.8685   -19937.746    27.626081    21128.741 
    4900    305.05146    -1158.782   -19937.871    27.633078    21153.945 
    4910    310.17743   -922.93905   -19938.061     27.65825    21149.794 
    4920    303.08284    1729.0783   -19938.349    27.673371    21124.121 
    4930    293.61294   -211.24648   -19938.817    27.677864    21142.402 
    4940     303.3363   -1579.3152   -19939.259    27.651505    21154.388 
    4950     299.9986    1053.8373    -19939.79    27.615794    21128.259 
    4960    303.72983     714.6334   -19940.552    27.632988    21127.434 
    4970    292.50033    -796.1343   -19941.314    27.677604    21148.398 
    4980     293.9378   -842.21489   -19942.081    27.680155    21142.732 
    4990    288.73634    1731.2444   -19942.553    27.637844    21118.282 
    5000    290.24148   -247.28745   -19942.707    27.617975    21138.482 
    5010    292.86125   -1839.5688   -19942.795    27.634498    21149.653 
    5020    295.15795    1429.9943   -19942.672    27.655983    21115.743 
    5030    292.20997    1216.7103   -19942.502    27.673816    21122.413 
    5040    290.33314    -2210.878    -19942.32     27.66696    21157.741 
    5050    299.61351   -76.050575   -19942.036    27.622192    21134.666 
    5060    298.14072    2087.8259   -19941.749    27.609798    21112.989 
    5070    293.13673   -1087.4686   -19941.493    27.656463    21142.895 
    5080    288.99099   -794.90404   -19941.148    27.683537    21145.869 
    5090    303.88421    812.18717   -19940.791    27.661546     21126.21 
    5100    297.99348    526.59059   -19940.323    27.631253    21131.398 
    5110    298.28282   -874.41323   -19939.954    27.627215    21149.282 
    5120    304.33615   -569.13002   -19939.668    27.643567      21141.4 
    5130    299.99122    1348.3787   -19939.351    27.661385    21121.355 
    5140    306.19739    145.01477   -19939.175    27.671143    21137.425 
    5150    297.58752   -1464.1264   -19938.993    27.658336    21158.306 
    5160    303.68413   -169.29069   -19938.823    27.629959    21136.664 
    5170    296.51561    2499.3743   -19938.755     27.62417    21115.193 
    5180    306.60029   -1353.1492   -19938.655    27.658822    21157.081 
    5190    298.51041    -2121.661   -19938.536    27.673029    21162.648 
    5200    309.89715    2590.3053   -19938.529    27.647846    21112.113 
    5210    304.50683    922.74331   -19938.643    27.642301    21130.634 
    5220    298.03258   -3135.5911   -19938.799    27.652288    21172.426 
    5230    294.86129    795.41065   -19939.052    27.642705     21133.65 
    5240    295.82437    2632.3531   -19939.324     27.64611    21115.929 
    5250    298.74865   -2524.9508   -19939.733    27.667575    21163.462 
    5260    299.79334   -819.59456   -19940.262    27.650068    21148.631 
    5270    298.79973    2367.6828   -19940.854     27.62761    21111.666 
    5280    296.63273   -465.87788   -19941.533    27.643754    21135.421 
    5290    297.96338   -1202.1622   -19942.157    27.657563    21148.346 
    5300    294.62036     782.8096   -19942.688    27.650395    21129.417 
    5310    290.97301    232.59113   -19943.038    27.646831     21130.21 
    5320    284.61857   -257.62426   -19943.212    27.646068    21139.903 
    5330    296.14522   -689.42311   -19943.202    27.644021     21139.36 
    5340    290.35743    722.41975   -19943.065    27.640287    21123.822 
    5350    299.34468    475.04688   -19942.858    27.645321    21126.371 
    5360    289.67125   -699.35334   -19942.565    27.653226    21142.655 
    5370    298.32398   -260.81648   -19942.147    27.648421    21139.628 
    5380    286.69644    821.93919   -19941.638    27.640088    21129.832 
    5390    301.13546   -636.10814   -19941.047    27.647601    21137.676 
    5400    296.92301    474.44144   -19940.456    27.652934    21134.293 
    5410    297.74142    77.521759   -19939.956    27.655643    21141.901 
    5420    307.86565   -1288.2604   -19939.565    27.653887    21148.404 
    5430    300.60377    1272.6132   -19939.326    27.643467     21125.95 
    5440    292.17329    787.69734   -19939.153     27.65077    21137.756 
    5450    301.46553   -2619.5587   -19938.972    27.664069     21163.65 
    5460    302.53503     1153.679   -19938.842    27.647115     21124.46 
    5470    303.88728    2552.2728   -19938.728    27.644435    21118.535 
    5480    299.81799   -3341.6103   -19938.681    27.672448    21174.232 
    5490    306.71495   -304.15531    -19938.73    27.656627    21144.739 
    5500    299.10261    3605.4513    -19938.73    27.630665    21108.741 
    5510    301.39069   -2296.3697   -19938.801    27.653872    21162.102 
    5520    304.14495    -1752.111   -19938.896    27.661336    21160.406 
    5530    310.26259    2603.3351   -19939.122    27.642664    21106.485 
    5540    295.71701     1531.868   -19939.488    27.648623    21126.644 
    5550    294.00021     -4216.95   -19939.731    27.665806    21186.495 
    5560    283.77813    565.73647   -19940.068    27.642035    21135.355 
    5570    306.86735     4136.827   -19940.226    27.633219    21094.098 
    5580     293.4626   -2275.8276   -19940.504        27.67    21165.237 
    5590     297.7342   -3532.7443   -19940.801    27.671589    21175.814 
    5600    298.13685    4118.9866    -19941.21    27.628391    21091.892 
    5610    298.77118    1801.1255   -19941.793    27.633299    21113.719 
    5620    295.80903   -5045.8506   -19942.362    27.665809    21186.828 
    5630    295.70774    402.55879   -19943.081    27.648707    21128.309 
    5640    285.62703    5268.8137   -19943.542    27.632217    21077.798 
    5650    293.11233   -3410.7985   -19943.986    27.663034    21160.421 
    5660    285.80141   -3098.0579   -19944.188    27.655227    21161.697 
    5670    291.75674    5089.4669   -19944.145    27.616533      21079.2 
    5680    284.47895    514.47637   -19944.064    27.640851    21126.946 
    5690    288.91281   -5603.7085   -19943.607    27.676594    21193.013 
    5700    289.08394    2335.2152   -19943.156    27.645915     21112.79 
    5710    302.01224    4328.5328   -19942.432    27.630389    21087.331 
    5720    300.07808    -4514.403   -19941.834    27.661548    21177.563 
    5730    294.12181    -1726.733   -19941.463    27.648861    21154.844 
    5740    292.23475    5310.8065   -19941.012    27.621131    21081.595 
    5750    285.39717   -601.36541   -19940.725    27.658643    21148.407 
    5760    293.95251   -5508.3895   -19940.205     27.68767    21203.612 
    5770    302.28973    2637.2371   -19939.927    27.641346    21108.778 
    5780    304.43447    5198.3941   -19939.582    27.619077    21083.189 
    5790    307.37889    -5261.361   -19939.402     27.66164    21194.024 
    5800    303.44889   -2510.0722   -19939.439    27.662929    21172.524 
    5810    299.80109    5838.5454   -19939.334     27.64124    21078.716 
    5820    297.58278    80.963321   -19939.444    27.668094    21136.074 
    5830    296.84027   -5669.5663   -19939.378    27.672828    21199.254 
    5840    289.18346    2769.9387   -19939.333    27.616493    21115.933 
    5850     304.8084    3775.1735   -19939.111     27.61575    21096.539 
    5860    302.88204   -4046.5329   -19938.966    27.680768    21180.513 
    5870    304.67626   -2040.6049    -19938.83    27.688291    21159.299 
    5880     300.5029    5471.0535   -19938.668    27.637143     21086.47 
    5890    305.68544   -1344.9122   -19938.622    27.634487    21152.205 
    5900    297.88924   -4517.3637   -19938.398    27.646817    21188.191 
    5910    309.81286    3837.2573   -19938.397    27.635744    21103.092 
    5920    304.43922    2456.0457    -19938.43    27.668126     21116.04 
    5930     308.2046    -5358.778   -19938.461    27.697253    21194.723 
    5940    301.28922    741.93162   -19938.836    27.638392    21135.924 
    5950    301.50982    4462.9619   -19939.113    27.598162    21092.519 
    5960    298.39733   -2746.1379    -19939.68    27.649195    21167.068 
    5970    294.36556   -2670.9253   -19940.242    27.690394    21169.108 
    5980    299.76925    3960.4458    -19940.69    27.670488     21102.07 
    5990    291.68684    137.51475   -19941.197    27.651681    21138.432 
    6000    290.86529   -3923.7025   -19941.428    27.636279    21177.599 
    6010    301.74888    1668.6788   -19941.688    27.611583    21113.399 
    6020    296.75908    3552.6179   -19941.876     27.64066    21097.126 
    6030    294.35481   -3072.9661    -19941.99    27.700594    21171.491 
    6040    289.94321   -2347.6069   -19942.153    27.679665    21163.001 
    6050    298.75062    3615.4113   -19942.092    27.609524    21092.554 
    6060    285.38993    1289.6925     -19941.9    27.609844    21123.596 
    6070    286.90052   -4058.6754   -19941.494    27.664418    21184.307 
    6080    303.52866     343.0111   -19940.943     27.67747    21133.024 
    6090    309.66513    3786.5246   -19940.171    27.659203    21095.835 
    6100    290.28706   -1831.2187   -19939.528    27.651321    21161.571 
    6110    304.94936   -3272.9146   -19938.843    27.631008    21170.391 
    6120    303.99716    4002.9482    -19938.35    27.617497     21101.46 
    6130    305.53828     323.4754   -19938.064    27.666616    21132.664 
    6140    301.52616    -2923.059   -19937.869    27.694058    21173.346 
    6150    304.57609    726.51003   -19937.882    27.651465    21134.519 
    6160     301.2038    2375.8746   -19937.844    27.616503    21118.077 
    6170    304.69552   -1936.1016   -19937.872    27.640444    21162.993 
    6180    299.21219   -1433.6239   -19937.943    27.667702    21156.868 
    6190    307.66009     2662.194   -19937.984    27.665339    21114.579 
    6200    301.96664    34.036959   -19938.173    27.659814    21142.913 
    6210    307.88138   -2773.2127   -19938.328    27.646645    21169.968 
    6220    308.56216    1438.6709   -19938.647    27.628818    21125.565 
    6230    306.74224    1785.4699   -19939.076    27.647501    21119.398 
    6240    292.55754   -1672.5776    -19939.53    27.680252    21162.251 
    6250    294.98444   -1542.3118   -19939.906    27.668117    21157.379 
    6260    296.71463    2242.7044   -19940.178     27.62385     21113.74 
    6270    306.80627    481.85786   -19940.383    27.623307    21129.144 
    6280    300.31088   -2008.7649   -19940.615    27.658159    21159.151 
    6290    299.60927    325.79726    -19940.86    27.668061    21135.091 
    6300    289.81001    1770.0907   -19941.033    27.656156    21122.393 
    6310    291.28551   -1449.3334   -19941.119    27.643697    21151.086 
    6320    292.36403   -161.03583   -19941.083    27.625451    21143.702 
    6330    301.19958    768.18655   -19940.938    27.632573    21130.448 
    6340    296.37326   -375.46376   -19940.736    27.662481    21140.001 
    6350    295.44645   -81.911151    -19940.56    27.669757    21138.145 
    6360    296.28875    757.41592   -19940.417    27.650442    21134.819 
    6370    300.78776   -1166.5519   -19940.226     27.63599    21147.029 
    6380    300.98214    116.63147   -19940.063    27.630111    21132.335 
    6390     301.1046    1448.4607   -19939.989    27.643138    21122.357 
    6400    304.59899   -802.93185   -19940.024    27.665669    21147.124 
    6410     306.7054   -1405.2871   -19940.073     27.66181    21150.647 
    6420    292.79208    1484.3126   -19940.084    27.636867    21122.662 
    6430    285.09593    1104.0882   -19940.015    27.637096    21136.026 
    6440    297.78492   -2621.3096   -19939.814      27.6592    21170.906 
    6450     297.0807    165.96853   -19939.574    27.658255    21139.439 
    6460    309.22182    2257.8104   -19939.292    27.647856     21110.89 
    6470      306.377   -275.93238   -19939.203    27.654083    21144.301 
    6480    307.04573   -2800.6167   -19939.158    27.656736    21166.396 
    6490    301.66851    1806.3779   -19939.225    27.637699    21119.433 
    6500      295.582     1791.041   -19939.288    27.641629    21121.055 
    6510    294.59938    -2424.567    -19939.32    27.661172    21166.149 
    6520      305.216   -421.20261   -19939.374    27.654235    21147.223 
    6530    303.54248    1882.6959   -19939.381    27.645207     21117.22 
    6540    296.20246    402.62084     -19939.5    27.653593    21141.298 
    6550    306.00237     -2773.78   -19939.632    27.661205    21168.874 
    6560    296.06906    1199.6785   -19939.795    27.642003    21130.303 
    6570    297.77981    1401.4942   -19939.953    27.634265    21120.014 
    6580    300.51767   -794.64611   -19940.206    27.650841    21148.593 
    6590    300.43053   -1222.9565   -19940.499    27.662391    21155.194 
    6600    298.00069    541.44126   -19940.874    27.650449    21126.563 
    6610    294.78534    1897.5194   -19941.254     27.64218    21118.397 
    6620    289.44075    -1667.673   -19941.588    27.653239    21158.594 
    6630    287.55022   -1286.2575   -19941.844    27.650213    21151.756 
    6640    293.63851    2473.6255    -19941.96    27.641435    21113.067 
    6650    303.25847   -351.15844   -19941.982    27.657677    21138.966 
    6660    292.64402   -2044.6881   -19941.939    27.662224    21157.059 
    6670     293.8176    1585.7841   -19941.886    27.638693    21121.027 
    6680    298.97506    863.65754   -19941.731     27.63877    21124.888 
    6690    296.65954   -1803.9266   -19941.432    27.657695    21153.535 
    6700    284.58278    507.39478   -19940.975    27.655012    21137.687 
    6710    302.34143    875.88183   -19940.323     27.65105    21129.721 
    6720    305.02422   -1075.8166    -19939.61    27.650241    21144.163 
    6730    303.92639    435.08764   -19938.991     27.64333    21134.226 
    6740    299.19793    1138.2155   -19938.536    27.652068    21137.599 
    6750    308.45343   -2189.2842   -19938.157    27.665547    21164.328 
    6760    300.53489     439.1897   -19937.898    27.649124    21139.635 
    6770    312.53088    1549.4293   -19937.753    27.638542    21122.838 
    6780    306.01671   -598.08403   -19937.823    27.651609    21148.317 
    6790    300.54093   -1367.1925   -19937.941    27.663736     21156.81 
    6800    296.42089    1394.0122   -19938.027    27.657075    21133.161 
    6810     298.1058    52.337643   -19938.083    27.653097    21143.157 
    6820    305.17006   -1311.0381   -19938.132    27.646183    21153.365 
    6830    310.63756    924.83296   -19938.302    27.634541    21130.152 
    6840    313.44647    603.01777   -19938.632    27.648501    21130.871 
    6850    294.50171   -865.23888   -19939.078    27.673749    21152.312 
    6860    304.24731    -773.6833   -19939.641    27.667095    21145.167 
    6870    297.84008    1780.7459   -19940.218    27.635244    21122.398 
    6880    292.01013   -626.66257   -19940.732    27.634019    21144.534 
    6890    291.96336   -1135.4421   -19941.124    27.650864    21150.894 
    6900    303.09617    903.22091    -19941.39    27.659462    21125.653 
    6910    294.53697    727.37131   -19941.575    27.661176    21126.884 
    6920    291.82828   -1114.0214   -19941.666    27.649196     21147.39 
    6930    297.68026    -246.5268   -19941.681     27.62728    21135.921 
    6940    300.24689    1525.1303   -19941.653    27.631241    21119.828 
    6950    286.22342   -482.45681   -19941.557    27.665197    21146.489 
    6960    293.25171   -1800.5676   -19941.402    27.674104    21155.273 
    6970    308.19992    1659.9984   -19941.267    27.638204    21117.704 
    6980    295.07884    914.35718    -19941.13    27.624246    21126.763 
    6990     294.0456   -2043.3973   -19940.987    27.646605    21159.106 
    7000    296.42103    152.25173   -19940.846    27.661106    21136.709 
    7010    297.49112    1745.7393   -19940.585    27.664363    21118.875 
    7020    291.66762   -702.21379   -19940.284    27.662031    21149.661 
    7030    303.33602   -2057.8513   -19939.918    27.641131    21157.488 
    7040    305.32671    2357.2137   -19939.581    27.620044    21115.033 
    7050    304.69805    941.25166    -19939.36    27.649256    21132.373 
    7060    303.24229   -3236.8841    -19939.12     27.69142    21175.788 
    7070     294.7899    851.36319   -19938.978    27.670769    21136.737 
    7080    300.73582    2636.6559   -19938.765    27.632993    21114.419 
    7090    304.38957   -2214.8966   -19938.511     27.63652    21162.951 
    7100     304.1473   -1426.5623   -19938.311    27.650229    21156.354 
    7110    305.37092    3225.1188    -19938.13    27.660891    21109.386 
    7120    300.04297   -445.39125   -19938.027    27.682615    21145.835 
    7130    304.70012   -3283.2798   -19937.874    27.666051    21171.686 
    7140    299.70074     3132.466   -19937.706    27.612684     21116.33 
    7150    316.10813    562.98001   -19937.589    27.627228    21134.257 
    7160     312.0107   -2980.3302   -19937.518    27.681283    21175.698 
    7170    300.43187    790.69203   -19937.628    27.685129    21140.417 
    7180    292.52665    2371.7268   -19937.851    27.656138    21120.623 
    7190    302.37591   -1867.0588   -19938.079    27.636409    21161.796 
    7200    305.75355   -1473.3488    -19938.33    27.622231    21157.909 
    7210    301.77441    2435.6156   -19938.703    27.636495     21115.31 
    7220    302.29504    540.73776   -19939.123    27.687873    21135.242 
    7230    306.06294   -3159.1851   -19939.642    27.699127    21168.106 
    7240     295.5441     1499.776   -19940.302    27.631381    21121.235 
    7250    295.92519     2733.649    -19940.74    27.589142    21111.032 
    7260    296.35185   -3260.0054   -19941.187    27.638065    21171.352 
    7270     298.1548   -1331.3127   -19941.524    27.687491    21147.834 
    7280    292.75426    4488.6513   -19941.643    27.684153    21089.588 
    7290    291.36736   -636.68892   -19941.954    27.666544    21147.221 
    7300    294.94606   -4799.7277   -19941.848    27.628679    21188.314 
    7310    290.32582    2906.7526   -19941.739     27.58743    21105.859 
    7320    298.36946    3563.1906   -19941.571    27.636023    21096.656 
    7330    299.50921   -4091.0635   -19941.205    27.720869    21181.793 
    7340    298.27878   -1812.8509   -19940.973    27.694107    21158.837 
    7350    304.26326     4449.684    -19940.55    27.603884    21088.204 
    7360    294.17797    235.37798   -19940.143    27.595166     21135.25 
    7370    304.58363   -4408.7219    -19939.66    27.652524    21188.623 
    7380    295.82847    1572.7841   -19939.034     27.68334    21129.474 
    7390    300.65876     3393.724   -19938.307    27.686629    21109.962 
    7400    303.87084   -3245.4155    -19937.76    27.671239    21177.407 
    7410    307.78845   -1720.1649   -19937.262    27.617447    21158.332 
    7420    302.09753    4646.4143   -19936.933    27.595657    21100.114 
    7430    307.65536   -1283.2206   -19936.911    27.669101    21156.655 
    7440    304.84705   -3254.1003   -19936.778    27.717256     21183.02 
    7450    298.21182    2416.2044   -19936.856    27.670177    21123.526 
    7460    310.92507    1803.6291   -19936.953    27.624033    21125.172 
    7470    318.22424   -3251.7222   -19937.089    27.624854    21173.518 
    7480    298.46329    386.49767   -19937.417    27.640153    21144.204 
    7490    311.13559    2167.4765    -19937.72    27.672523    21118.071 
    7500    303.81635   -1013.0457   -19938.135    27.688979    21149.452 
    7510    296.08756   -1103.5732   -19938.525    27.654512    21157.475 
    7520    305.27848    719.77077   -19938.827    27.612657    21130.607 
    7530    293.96409    1511.4426   -19939.172    27.623723    21127.441 
    7540    305.24291   -1869.0394   -19939.428    27.676461    21160.767 
    7550    299.49509   -606.01307   -19939.618    27.686283    21147.862 
    7560    295.02802    2352.7803   -19939.828    27.651138    21120.642 
    7570    306.52071    -1300.786   -19939.993    27.633235    21149.969 
    7580    299.48462   -1108.9044   -19940.181    27.632728    21149.808 
    7590    291.56349    2102.8662   -19940.352    27.647348    21122.814 
    7600    301.38061   -852.72194    -19940.48    27.676795    21143.242 
    7610    307.56877   -968.70678    -19940.69    27.668066    21143.909 
    7620    295.33979    1269.7925   -19940.916    27.628417    21120.964 
    7630    289.11725    942.03609   -19941.148    27.625183    21134.323 
    7640    294.02292   -2559.2672   -19941.342     27.66147    21165.364 
    7650     294.5928    81.336724   -19941.406    27.667369    21132.859 
    7660      304.369    3117.9464   -19941.431    27.644822    21104.051 
    7670    293.05945    -1183.034   -19941.576    27.643122    21157.643 
    7680    299.19078   -3783.7019   -19941.651    27.643983    21173.255 
    7690     285.8262    3916.0508   -19941.729    27.626952     21094.57 
    7700    296.09427     1955.722   -19941.691    27.655787    21116.429 
    7710    296.71736    -4922.242   -19941.424    27.685331    21189.648 
    7720    298.45834    322.90994   -19941.168    27.643079    21136.206 
    7730    298.34593    4292.4363   -19940.708    27.613436    21088.815 
    7740    301.78651    -1706.136   -19940.373    27.649096    21154.779 
    7750    287.30455   -3166.4435   -19939.844    27.669134    21180.064 
    7760    298.93007    2597.7109   -19939.278    27.644358    21117.761 
    7770    309.39166    1791.4987   -19938.755    27.642987    21121.932 
    7780    300.12586   -3419.4078   -19938.293    27.661568    21175.615 
    7790    306.45221    197.46432   -19937.955    27.644777    21142.091 
    7800    308.03379    2821.9588   -19937.684    27.636476    21111.014 
    7810    307.40688    -1606.666   -19937.586    27.661387    21153.829 
    7820    304.92285   -1839.8185     -19937.6    27.659508    21154.535 
    7830    306.02013    3401.3611    -19937.76    27.632514    21109.332 
    7840    301.42862   -342.00386   -19938.031    27.647555    21150.418 
    7850    295.92714   -3829.8433   -19938.166    27.666096    21183.682 
    7860    308.13567    2447.2521   -19938.474    27.641007    21114.279 
    7870    304.68457    2963.6392   -19938.869    27.639552     21109.54 
    7880    304.71354   -4267.0605   -19939.345    27.667054    21182.239 
    7890    294.00194   -405.57351   -19940.026    27.645848    21145.899 
    7900     298.3651    4117.0302   -19940.545    27.624305    21094.981 
    7910    297.52561   -1591.0085   -19941.091    27.657236     21153.57 
    7920    289.86545   -3299.0034   -19941.439    27.673593    21173.261 
    7930    297.37936    2996.4187   -19941.658    27.639352    21104.227 
    7940    293.16988    1827.7001   -19941.791    27.629272    21112.856 
    7950    302.11619     -3631.25   -19941.809    27.649749    21169.183 
    7960     294.8251    574.94727   -19941.863    27.645573    21134.302 
    7970    296.71954    2439.5107   -19941.808     27.64758    21109.146 
    7980    292.30987   -1226.7756   -19941.733    27.664313    21150.905 
    7990    292.00578    -2228.702    -19941.56    27.654119    21160.443 
    8000    293.02407    2309.5516   -19941.333     27.62647    21111.878 
    8010    298.11559    1383.0725   -19941.098    27.635776    21120.802 
    8020    293.83934   -2814.6617   -19940.853    27.665259    21170.795 
    8030    297.82964   -779.61525   -19940.647     27.65847     21145.39 
    8040    303.55084    3811.3919   -19940.393    27.633611    21098.628 
    8050    293.90349   -1025.3541   -19940.293     27.65031    21153.157 
    8060     294.7623    -4089.465   -19940.002     27.66093    21182.303 
    8070    305.82838    3432.9896   -19939.827    27.628966    21100.809 
    8080    304.15903    3062.9723   -19939.735    27.641112    21108.648 
    8090    301.83836   -5790.2507   -19939.487    27.681844    21200.794 
    8100     295.6557   -19.793512   -19939.564    27.648338     21142.63 
    8110    303.21363    6159.4464   -19939.394     27.61268     21074.09 
    8120    301.48176   -2927.3279   -19939.399     27.65565    21168.738 
    8130    288.77818    -4555.006   -19939.274    27.675365     21197.88 
    8140    303.29277    4071.1595   -19939.046    27.635581    21096.524 
    8150    311.14307    3573.9994   -19938.837    27.634568    21101.934 
    8160    298.81591   -5814.0879   -19938.621    27.675053    21207.285 
    8170    305.75909   -1590.7017   -19938.426    27.651099    21158.805 
    8180    306.57571    7030.0876   -19938.111     27.61296    21066.797 
    8190    303.15961    -1609.428   -19938.074    27.657646    21156.544 
    8200    297.63251   -5779.8885     -19937.6    27.683414      21208.8 
    8210    303.97333    3730.5351   -19937.447    27.636291    21107.232 
    8220     308.2501    3753.4865   -19936.986    27.629476    21101.289 
    8230    307.93066   -4867.6694   -19936.646    27.668714    21193.247 
    8240    312.29034   -1304.6872   -19936.678    27.658803    21156.711 
    8250    311.03034    5171.0754   -19936.475    27.633055    21088.823 
    8260    309.75307   -1215.1239   -19936.762    27.659569    21155.837 
    8270    300.12494   -4117.2192   -19937.101     27.66916    21189.098 
    8280    306.26032    2810.1032   -19937.525     27.63282    21112.953 
    8290    300.33251    2907.4434    -19938.16    27.637863    21115.845 
    8300    292.35202   -4482.2195   -19938.629    27.676629    21190.197 
    8310    307.24271   -734.27022   -19939.092    27.658606    21146.125 
    8320    305.63721     4653.485   -19939.577    27.629261    21088.939 
    8330    300.64595   -1423.3731   -19940.088    27.650906    21152.902 
    8340    299.95873   -3492.5936   -19940.513    27.661636    21175.319 
    8350    291.86065    3438.4902   -19940.942    27.640179    21110.706 
    8360    291.99553    854.47987   -19941.159    27.652062    21132.745 
    8370    294.74024   -3792.5298   -19941.219    27.667597    21173.877 
    8380    298.41819    1695.8883   -19941.216    27.640267    21121.075 
    8390    291.78073    2627.9551   -19941.144    27.634707    21112.877 
    8400    309.55483   -3351.8382     -19941.1    27.664083    21167.205 
    8410     297.2534    -35.94194   -19941.022    27.656251    21141.539 
    8420    287.52481     2843.737   -19940.882    27.640449    21114.487 
    8430    301.47586   -1776.1833   -19940.774    27.653968    21154.576 
    8440    299.71361   -1229.1004    -19940.57    27.654868    21152.485 
    8450    293.88579    1932.3637   -19940.245     27.64484    21121.106 
    8460    302.91249    92.328619   -19939.893    27.651987      21137.8 
    8470    300.43816   -1454.8768   -19939.459    27.658435    21156.966 
    8480    302.78261    321.21266   -19938.991     27.65341    21136.942 
    8490    306.73344    1359.2297   -19938.373    27.652301    21127.649 
    8500    298.16151   -859.41604   -19937.609    27.660213    21154.725 
    8510     308.1321   -1208.8979   -19936.808    27.654915    21154.754 
    8520    309.66889    1983.3364    -19936.04    27.641873    21125.731 
    8530    309.83679   -200.97789   -19935.479    27.655767     21146.49 
    8540    314.51973   -1808.6509   -19935.155    27.665361    21163.648 
    8550    304.99518    1430.3674   -19935.025    27.651887    21136.429 
    8560    307.77765    677.49703   -19935.087    27.648389    21142.128 
    8570    312.50728   -1639.0918   -19935.251    27.649623    21165.617 
    8580    313.30132   -138.19422   -19935.504    27.645249    21145.333 
    8590    306.59849    2208.4985   -19935.842    27.651159    21124.836 
    8600    313.43331   -1393.3029   -19936.187    27.669529     21159.46 
    8610    310.23898   -1304.4787   -19936.593    27.662439    21160.725 
    8620    306.51299    1942.4709   -19937.066    27.633213    21127.157 
    8630    302.66923     295.1898   -19937.507    27.638746    21143.538 
    8640     303.2619   -2341.7925   -19937.955    27.670328    21166.391 
    8650    304.33655    1251.5738   -19938.381    27.663961    21129.073 
    8660    302.68987    1714.5318   -19938.732    27.647672    21126.468 
    8670     297.4507   -2453.3335   -19939.089    27.649132    21167.321 
    8680    302.27132   -235.28437   -19939.426    27.641249    21143.818 
    8690    304.99394    2495.6915   -19939.774    27.644488    21112.524 
    8700    298.00018   -691.10742    -19940.18    27.671735    21146.571 
    8710    297.26865   -2232.7435   -19940.487    27.669911    21163.111 
    8720     297.8795    1652.6128   -19940.786    27.632026     21120.97 
    8730    297.68494    1197.9185   -19941.009     27.62457    21119.576 
    8740    291.77338    -1476.764   -19941.148    27.651403    21154.394 
    8750    290.82009   -946.99429   -19941.201    27.664441    21148.325 
    8760    301.15914    1817.3288   -19941.172    27.650492     21114.69 
    8770    302.94154    401.79869    -19941.14    27.642301    21130.021 
    8780    291.15809   -1658.1256   -19941.018    27.646764    21161.646 
    8790    297.09874   -636.82119    -19940.86    27.644682     21144.15 
    8800    298.14966    2385.2323   -19940.529    27.644371    21111.103 
    8810    295.98723   -105.32602   -19940.045    27.661493     21142.34 
    8820    309.61605   -3094.7106   -19939.366    27.658248    21166.498 
    8830    305.95303    2761.1526   -19938.637    27.624386    21116.125 
    8840    302.66988    1122.3089   -19937.975    27.637651    21133.867 
    8850    301.01218   -3803.8633   -19937.339    27.675453    21180.727 
    8860     298.5343    1570.3762   -19936.841    27.660278    21131.234 
    8870    308.62507    2600.2058   -19936.418    27.641454    21117.117 
    8880    306.61638   -2834.1517   -19936.147    27.654627    21173.809 
    8890    310.54744   -1253.9807   -19936.041    27.647741    21158.695 
    8900    308.47319    3670.4429   -19936.086    27.637727    21109.993 
    8910     317.3867   -1003.4228   -19936.344    27.670497    21151.439 
    8920    311.55279   -3021.0782    -19936.69    27.676294    21172.529 
    8930    301.32918    2704.4202    -19937.14    27.633619    21115.348 
    8940    303.74192    1416.2659   -19937.547    27.624686    21122.272 
    8950     302.9157   -3051.0518   -19937.891    27.650143    21170.334 
    8960    301.56292    366.46095   -19938.207    27.655034    21141.327 
    8970    304.54055    2302.1791   -19938.425    27.655367    21116.416 
    8980    304.18215   -1603.6402   -19938.702    27.661352    21153.025 
    8990     294.1779   -880.99491    -19938.92    27.641642    21151.224 
    9000    304.46631    2022.0332     -19939.1    27.622739    21124.209 
    9010    307.93554   -775.97331   -19939.332    27.647284    21147.853 
    9020    297.71629   -1426.7392   -19939.559    27.674403     21154.25 
    9030    303.20599    1433.7944   -19939.862    27.665165     21121.53 
    9040    297.97863    783.40462   -19940.119      27.6434    21127.246 
    9050    297.20538   -1931.1177   -19940.237     27.62925    21155.019 
    9060    296.08528    544.35328   -19940.458    27.627869    21134.147 
    9070    301.46638    1397.0897   -19940.537    27.656685    21124.003 
    9080    297.37188   -1315.0029   -19940.663    27.682846    21150.698 
    9090    300.89954   -923.74448   -19940.838    27.659178    21143.622 
    9100    293.79847    2032.8269   -19940.857    27.613372    21113.421 
    9110    298.47329   -11.737219    -19941.02    27.619118     21134.44 
    9120    291.99289   -1904.0411   -19941.052    27.664666    21158.474 
    9130    293.22758    1043.3104   -19940.929     27.67996    21132.332 
    9140     295.1887     801.4341   -19940.829      27.6614    21130.168 
    9150    298.93064   -1640.2275   -19940.344    27.629803    21149.569 
    9160    302.69151    647.36632   -19939.755     27.60424    21128.066 
    9170    296.53344    1707.8509   -19939.276    27.631243     21124.32 
    9180    311.86772   -2239.5325   -19938.574    27.687781    21160.564 
    9190    299.30094   -196.24429   -19938.102    27.680918    21144.652 
    9200    307.14715    1981.1295   -19937.633    27.633832    21121.804 
    9210    307.54519   -866.47616   -19937.267    27.620331    21148.604 
    9220    304.72463   -1131.0767   -19937.173    27.637989    21155.331 
    9230    303.34816    1378.0679   -19937.042    27.661291    21131.689 
    9240    313.65981    22.415218   -19937.059    27.675932    21140.367 
    9250    302.32633   -871.40177   -19937.251    27.656878    21154.347 
    9260    302.73572    21.496966     -19937.4    27.625021    21142.996 
    9270    307.21538    1017.8757   -19937.853     27.62523    21129.876 
    9280    299.26883   -133.34648   -19938.328    27.662466    21146.815 
    9290    302.56778   -1779.4916   -19938.732    27.683455    21157.714 
    9300    302.21289    1399.1294   -19939.368    27.652905    21123.607 
    9310    303.86231    1403.8771    -19939.91    27.629687    21127.432 
    9320    300.13608   -2735.3364   -19940.431     27.64171    21165.422 
    9330    292.41241    507.31445   -19940.939      27.6484     21135.52 
    9340    290.61497    2363.6686   -19941.127     27.66123    21117.591 
    9350    300.27012   -2159.7935   -19941.295    27.674778    21158.019 
    9360    297.69432   -840.94228   -19941.339    27.644356    21146.181 
    9370    294.29549    2691.7261   -19941.264    27.616083    21113.397 
    9380     297.3934   -891.11508   -19941.295     27.64614    21147.857 
    9390    294.23936   -2113.0789   -19941.169    27.674504    21157.477 
    9400    299.16357    2352.5319   -19941.052    27.661369     21114.15 
    9410    294.41989    493.04753   -19940.972     27.64987    21130.565 
    9420    297.67767   -2192.9031   -19940.719    27.641855    21160.673 
    9430    292.10641    1081.3622   -19940.482    27.634353    21139.478 
    9440    303.91026    15.441629   -19940.186    27.654154    21139.033 
    9450    305.91158   -586.42455   -19939.911    27.669544    21141.485 
    9460    294.03849    1131.9301   -19939.804    27.658862    21132.038 
    9470    302.57836   -858.68442   -19939.634    27.645477    21145.986 
    9480    294.40104    153.10126   -19939.459    27.633084    21144.087 
    9490    295.89495    87.571762   -19939.282    27.640308    21142.133 
    9500    309.70143    -479.8749    -19939.04    27.660814     21140.72 
    9510    299.67964    1004.9648   -19938.932    27.665952    21132.388 
[...]
   22570    295.15448   -1101.1648   -19938.357    27.656942    21155.579 
   22580    308.40603   -649.93918   -19938.353    27.657114    21151.709 
   22590     302.0521    880.57256   -19938.366    27.648206    21132.225 
   22600    308.70212    358.77528   -19938.396    27.648573    21137.557 
   22610    299.66817   -603.25755   -19938.574    27.653158    21154.044 
   22620    299.64269   -713.18221   -19938.894    27.651705    21150.798 
   22630    302.53245      1140.97   -19939.286    27.646481    21129.974 
   22640    298.06033    62.848102   -19939.941    27.655947    21140.326 
   22650     290.8716   -939.76876   -19940.736    27.665323    21154.294 
   22660    296.81091    -31.68513   -19941.574    27.652912    21140.417 
   22670    300.29586    860.73618   -19942.365    27.636148    21124.512 
   22680    297.70803    311.80675   -19942.958    27.638786    21134.699 
   22690    289.58731   -1480.2233   -19943.327    27.654056    21152.355 
   22700    289.93519    311.14176   -19943.529    27.657506    21131.462 
   22710    287.94435    1595.2433   -19943.485    27.655709    21118.753 
   22720    284.05545   -940.27667   -19943.326    27.657915    21149.588 
   22730     295.3405    -1715.265   -19942.989    27.642691    21152.317 
   22740     295.2989    2125.4025   -19942.541    27.622775    21112.324 
   22750     293.8799    778.07659   -19942.157    27.646857    21127.953 
   22760    292.98706   -2282.7086   -19941.661    27.679413    21165.616 
   22770    298.32419   -301.01651   -19941.188     27.66389     21141.73 
   22780    296.80235    2428.8492   -19940.761    27.630633    21109.879 
   22790    300.11364   -200.00083     -19940.4    27.634355    21142.157 
   22800    296.11207   -2522.3899   -19940.097    27.658319    21169.563 
   22810    299.57335    925.26835    -19939.82    27.662299    21132.029 
   22820    299.35236    2120.6755   -19939.453    27.659398    21119.085 
   22830    298.77099   -1718.5423   -19939.259     27.66098    21161.797 
   22840    307.99584   -1448.5739   -19939.076    27.644425    21158.084 
   22850    303.70169     2224.885   -19938.954    27.625742     21116.45 
   22860    304.40568      585.681    -19938.99    27.649481    21134.955 
   22870    287.48785   -2155.0553   -19938.896    27.682863    21170.684 
   22880    301.61587   -318.38577   -19938.825    27.666751    21145.564 
   22890     303.6787    2447.5311    -19938.69    27.630545    21114.456 
   22900    311.08533   -702.49599   -19938.552    27.631572    21146.462 
   22910    304.14175   -1783.9023   -19938.699    27.648726    21160.952 
   22920       298.98    1485.2372   -19938.882    27.658739    21128.563 
   22930    295.39744    844.68119   -19939.052    27.666756    21133.877 
   22940    305.96041   -1970.4418    -19939.43    27.657177    21159.944 
   22950    299.75676    522.81158   -19939.853     27.63031    21137.652 
   22960    292.29248    1041.3069   -19940.512    27.633731    21127.684 
   22970    300.43124   -775.13134   -19941.294    27.660955    21146.157 
   22980    291.12939   -398.24121   -19941.951    27.667667    21145.735 
   22990    293.94409    175.76125   -19942.557    27.650334    21132.298 
   23000    295.92769    549.09575   -19942.937    27.631615    21123.773 
   23010    287.84275    614.73403    -19943.19    27.634197    21132.836 
   23020    285.42733   -1433.1656    -19943.36    27.656113    21154.095 
   23030      296.907   -413.88175    -19943.23    27.661703    21136.176 
   23040    298.93539    1974.8135   -19943.039    27.650264    21110.879 
   23050    292.89144   -316.00551   -19942.872    27.647063    21139.695 
   23060    286.14691   -1946.3464   -19942.484    27.644623     21157.36 
   23070    289.19198    1134.9124   -19942.115    27.635738    21122.476 
   23080    295.57024    1579.1178   -19941.535    27.647356    21120.726 
   23090    294.24337   -1912.1457   -19940.827    27.673293    21160.898 
   23100    306.39293   -1100.5037   -19940.511    27.660638    21146.649 
   23110    306.73639    2433.5664   -19940.146    27.627561    21106.041 
   23120    293.57824    621.21039   -19939.999    27.636814    21133.256 
   23130    293.27775   -2843.7167   -19939.924    27.665386    21171.961 
   23140    306.20058    528.32156   -19939.764    27.660125    21133.413 
   23150    298.57345    2690.5716   -19939.678    27.648789    21113.098 
   23160    292.27259   -2283.0295   -19939.564    27.653857    21160.137 
   23170    297.58153   -873.42057   -19939.336    27.639622    21149.349 
   23180    306.89514    2585.9873   -19939.174    27.631432    21115.786 
   23190    300.15143   -608.54932    -19939.03    27.664988    21149.551 
   23200    313.16879   -2775.0176   -19938.953    27.678417      21161.9 
   23210    296.89491    3157.2439   -19938.985    27.643038    21113.276 
   23220    299.02929     183.7024   -19938.955    27.634851    21140.427 
   23230     298.4858   -2481.1448   -19938.986    27.646919    21171.935 
   23240    303.39764    860.84779   -19939.065    27.653391    21137.471 
   23250    298.60441    1369.5887   -19939.051     27.66534    21126.754 
   23260    299.12329      -1266.7   -19939.124    27.670884     21151.75 
   23270    303.39277   -340.11923   -19939.207    27.647095    21143.378 
   23280    304.77371     1096.688   -19939.323     27.62853    21128.524 
   23290    303.16506    -433.6853   -19939.641    27.645964    21140.396 
   23300    300.78706   -193.74151   -19940.038    27.665392    21142.879 
   23310    291.25429    326.30087   -19940.507     27.66413    21141.938 
   23320    297.85947   -635.12014   -19940.963    27.649225    21144.965 
   23330    290.85851    315.37595   -19941.317    27.636182    21134.334 
   23340     293.9331      375.193   -19941.645    27.642943    21130.424 
   23350    298.54781   -271.19196   -19941.916    27.654402    21134.813 
   23360    294.93045   -42.413555   -19942.095    27.656446    21136.144 
   23370    290.44682     -54.6777   -19942.239    27.646739    21134.598 
   23380    298.56879    212.89966   -19942.286    27.636224     21131.94 
   23390    293.94193     27.89593   -19942.255    27.642419    21136.507 
   23400    297.14245   -760.74808   -19942.138    27.653958    21139.888 
   23410    284.62382    866.59949   -19941.866    27.655394    21126.706 
   23420    300.36312    327.51505    -19941.43    27.653042    21134.348 
   23430    304.99587   -1690.8952   -19940.769    27.645908     21150.03 
   23440    295.32037    1114.3619   -19940.035    27.635456    21127.229 
   23450    300.31556    980.30103   -19939.419    27.649475     21127.73 
   23460    303.09945   -1300.8042   -19938.887    27.672022    21153.913 
   23470    305.16704   -625.80882   -19938.437    27.662022    21147.686 
   23480    301.00073    1319.4652   -19938.096    27.636942    21126.757 
   23490    298.91375    50.508839   -19937.893     27.63456    21137.951 
   23500    307.24874   -683.87593   -19937.775    27.648454    21152.446 
   23510    300.85769   -252.16932   -19937.716    27.660623     21148.79 
   23520    305.33735     351.4249    -19937.71    27.657082    21136.558 
   23530    313.78776    588.97238   -19937.785    27.648188    21136.464 
   23540    306.11152   -789.29593   -19937.978    27.648814    21153.122 
   23550    298.50379   -108.03104   -19938.266    27.648221    21149.263 
   23560    301.76028    446.62612   -19938.598    27.652183     21137.93 
   23570    299.52567    208.16402   -19938.916    27.658207    21139.536 
   23580    300.85021   -721.14495   -19939.154    27.656187    21147.718 
   23590    294.91209    409.85141   -19939.368    27.646661    21139.251 
   23600    303.50257    357.26873   -19939.565    27.646759    21137.355 
   23610    308.73401   -780.35655   -19939.807    27.652155     21145.03 
   23620    296.26753    277.38049   -19940.078    27.647185    21135.638 
   23630    299.67828    723.05711   -19940.319    27.644123    21133.193 
   23640    297.18531    -775.3699   -19940.508    27.650574    21150.425 
   23650    299.71046   -744.12995   -19940.618    27.652263    21148.982 
   23660     293.5198    1273.6098   -19940.687    27.645659    21127.641 
   23670    301.08105    92.145692   -19940.763    27.649239    21135.404 
   23680    297.52629   -853.07697   -19940.788    27.652863    21150.185 
   23690    297.48081    103.36257    -19940.75    27.649122    21143.203 
   23700    297.60171    459.32803   -19940.704    27.650016    21135.877 
   23710    297.57095   -243.05048   -19940.633    27.655157    21141.333 
   23720    299.48711   -359.29868   -19940.549    27.650945    21140.626 
   23730     286.2127    926.17467   -19940.432    27.646782     21133.14 
   23740    300.17694   -843.34841   -19940.264    27.654114    21145.028 
   23750    299.93512   -113.08038   -19940.176    27.651523    21137.869 
   23760    303.00219    1344.1145   -19940.113    27.648424     21127.87 
   23770    298.01756    -869.3296    -19940.09    27.656109    21153.188 
   23780    301.64832   -1504.3893   -19940.077    27.652615    21156.024 
   23790    294.52541    1991.7294   -19940.028    27.642354    21119.293 
   23800    296.93159    863.65753   -19940.016    27.653635    21131.713 
   23810    305.13445   -2611.4634   -19939.933    27.666665    21167.875 
   23820    292.61921    555.04543   -19939.825    27.646861    21139.727 
   23830    301.92411    1546.9582   -19939.693    27.633697     21118.53 
   23840    298.64912    -75.82857   -19939.577     27.65194     21142.13 
   23850    296.79166   -1725.7974   -19939.437    27.671524    21162.717 
   23860    307.79073   -41.311512   -19939.304    27.657435    21136.143 
   23870     304.9818    2756.6664    -19939.09    27.637031    21112.189 
   23880    296.97398   -1501.0851   -19939.047    27.651287     21159.41 
   23890    296.67984   -2501.3784   -19938.949    27.658276    21166.454 
   23900    306.43743    3363.1735   -19938.782    27.641297    21107.994 
   23910    306.45877    476.58812   -19938.744    27.658183    21137.777 
   23920    301.90492   -4080.2052   -19938.556    27.673621    21182.648 
   23930    302.14383      1929.65   -19938.573    27.638579    21120.371 
   23940    301.29342    3279.7036   -19938.606    27.629606    21106.717 
   23950    300.34388   -3322.8912   -19938.611    27.666036    21179.529 
   23960    300.71536   -1897.1147   -19938.755    27.665813    21164.077 
   23970    298.73097    4181.2793   -19938.861     27.63778    21098.485 
   23980    305.92126   -232.43949   -19939.035    27.650865    21140.151 
   23990    296.02679   -3500.6944   -19939.297    27.663115     21179.77 
   24000    304.59783    1371.5239   -19939.633    27.637564    21123.641 
   24010     302.0913    2911.8021   -19940.022    27.635725    21104.841 
   24020    290.98504   -2165.0481   -19940.532    27.666629    21166.325 
   24030    293.54142   -2648.8863    -19940.86    27.664262    21167.041 
   24040    299.31466    3310.9049   -19941.267    27.628803    21096.106 
   24050    295.76313    1931.9994   -19941.635    27.635976    21116.809 
   24060    290.87029   -4422.3151   -19941.783     27.67382    21186.022 
   24070    299.85691   -124.12696   -19942.145    27.656287    21136.521 
   24080    293.95198     4499.979   -19942.145    27.628059    21087.579 
   24090    298.96418   -2023.3496   -19942.278    27.651528    21155.226 
   24100    285.88854   -2995.4791   -19942.325    27.659694    21171.352 
   24110    294.95989    2832.5639   -19942.144    27.639042    21105.668 
   24120    294.83615     1816.447   -19941.915    27.646014    21116.833 
   24130    290.73881   -3429.0227   -19941.364    27.664263     21175.05 
   24140    300.62693   -543.62498   -19940.625    27.645368    21140.577 
   24150    302.48295    3816.1832   -19939.799    27.631342     21095.98 
   24160    301.13364    -1027.564   -19939.073     27.65927    21151.844 
   24170     299.4147   -3142.0945   -19938.456     27.66985     21179.32 
   24180    304.58924    1971.5029   -19938.117     27.63966    21122.039 
   24190     307.8394     2077.795   -19937.837    27.633353     21118.18 
   24200    302.49734   -2467.3526   -19937.783    27.657636    21169.201 
   24210    304.20412   -962.18906   -19937.743    27.659681     21154.76 
   24220    302.41028    2713.4001   -19937.733    27.649199     21116.15 
   24230    302.58013   -416.29269    -19937.87      27.6572    21146.932 
   24240    311.93969   -2445.0919   -19937.939    27.656176    21166.734 
   24250    304.89309    1320.6616   -19938.233    27.636854    21123.802 
   24260    305.41329    1868.2493   -19938.615    27.638975    21116.836 
   24270    297.40952   -1523.8158    -19939.07    27.659415    21158.676 
   24280    294.98279   -1463.2097   -19939.502    27.657424    21158.487 
   24290    297.43001    1816.5656   -19939.803    27.638756     21120.86 
   24300    303.10926    868.04991    -19940.13    27.641651    21130.224 
   24310    297.72564   -1953.5198   -19940.454    27.655505    21163.661 
   24320    300.01214   -555.16097   -19940.733    27.650495    21143.628 
   24330     298.7506    2581.6137   -19940.989    27.640758    21111.167 
   24340    294.57609   -734.51182   -19941.209    27.654488    21148.087 
   24350    293.28581   -2239.2992   -19941.308    27.661152    21164.149 
   24360    298.94467    1674.8723   -19941.428    27.643993    21118.554 
   24370    294.08299    1549.0394   -19941.465    27.643816    21120.617 
   24380    289.29006   -2413.9243   -19941.339    27.660041    21163.571 
   24390    292.93164   -152.55816   -19941.034    27.648334    21143.825 
   24400     303.4227    2260.6503   -19940.396    27.638408    21116.961 
   24410    305.89144   -1057.5628    -19939.46    27.659056    21147.713 
   24420    303.34023    -1010.503    -19938.33    27.665298    21155.935 
   24430    305.82184    947.07032   -19937.385    27.648482    21134.855 
   24440     307.0485    508.42344   -19936.788    27.642648    21138.724 
   24450    302.79317   -1008.1792   -19936.442    27.655478    21157.218 
   24460    310.66741   -317.10969   -19936.306     27.65888    21145.969 
   24470    309.70255    1645.6409   -19936.322    27.649318    21128.406 
   24480    309.22186   -895.99563   -19936.456     27.65602    21152.991 
   24490    302.95961   -1132.3118   -19936.667    27.657896    21157.587 
   24500    308.81297    1532.0929   -19937.047     27.64522     21128.79 
   24510    311.22174    524.03312   -19937.553    27.647988    21139.684 
   24520     299.4588   -2223.8992   -19938.056    27.660033    21168.459 
   24530    299.36739    113.50861   -19938.557    27.648775    21137.103 
   24540    299.50467    3117.6879   -19938.984    27.640019    21110.199 
   24550    306.27687   -1938.7902   -19939.449    27.664815    21161.533 
   24560    298.76887   -2381.1646   -19939.853    27.661299    21164.369 
   24570    304.70749    3268.3019   -19940.225    27.632604    21102.019 
   24580    295.97328    1372.3795   -19940.636    27.648705    21124.983 
   24590     299.2089   -4631.2983   -19940.847    27.675316    21184.015 
   24600    282.67398    1666.7151    -19941.04    27.648878    21127.812 
   24610    300.26707    3085.2132   -19941.001    27.636462    21104.684 
   24620    293.36944   -2843.2114    -19940.94    27.655133    21166.015 
   24630    295.71108   -1234.5639   -19940.822    27.647926    21156.938 
   24640    300.63094    2727.1011   -19940.597     27.63744    21109.539 
   24650     302.0283    315.26355   -19940.452    27.661441    21132.174 
   24660     304.2462   -2624.4583   -19940.334    27.676267    21166.006 
   24670    301.42956     592.1513   -19940.239    27.643449    21132.213 
   24680      292.197    2779.1622   -19940.086    27.620342    21115.271 
   24690    303.99061   -2912.4312    -19939.91    27.653742    21164.747 
   24700    296.38198   -326.62302   -19939.647    27.669693    21146.738 
   24710     294.9862    2875.1057    -19939.15    27.657007    21117.512 
   24720    302.10556   -1825.2817   -19938.438     27.65521     21158.55 
   24730    313.12456   -1640.0273   -19937.553    27.638423    21153.534 
   24740    306.21503    3862.1989   -19936.706    27.627229    21111.287 
   24750    306.63112   -1634.8338   -19936.084    27.674075    21164.252 
   24760    308.74942   -2893.1382   -19935.636    27.685079    21178.489 
   24770    314.72741    3321.3503   -19935.424    27.638698    21117.163 
   24780    311.83723    278.33137   -19935.437    27.629698    21136.283 
   24790    314.13648   -2152.9149   -19935.673    27.650217    21169.509 
   24800    298.32295    353.32979   -19936.024    27.661045    21144.922 
   24810    307.68602    1789.6796   -19936.345    27.664482    21126.022 
   24820    312.40731   -950.66936   -19936.783    27.665398    21155.444 
   24830    307.40559   -2055.2981   -19937.246    27.641287    21159.367 
   24840    305.28565    2948.3603   -19937.697    27.611772    21113.274 
   24850    301.93007    326.25955   -19938.219    27.647119    21140.831 
   24860    305.24481   -3343.5741   -19938.536    27.693162    21178.363 
   24870    297.94181     1416.312   -19938.853    27.671271    21130.737 
   24880    304.85644    1903.8354   -19939.086    27.631766     21114.08 
   24890    295.73296   -1439.5356   -19939.267    27.625037    21152.653 
   24900    296.74268   -1061.0282   -19939.458    27.642718    21153.936 
   24910    309.98253    1460.5212   -19939.577     27.66313    21124.638 
   24920    298.88752    95.372464   -19939.716    27.674674    21134.487 
   24930    294.45393   -844.58454   -19939.899    27.652563    21149.481 
   24940    300.23774    125.59215   -19940.046    27.619644    21137.445 
   24950    298.02745    1060.4754   -19940.211    27.624997    21130.498 
   24960    300.28809   -1106.6903   -19940.321    27.670156    21150.667 
   24970    297.05748   -407.99167   -19940.374     27.68727    21143.752 
   24980     293.6336    1641.9419   -19940.512    27.654847    21126.072 
   24990    302.75295   -1224.1508   -19940.542    27.625252    21145.813 
   25000    293.49066   -16.772959   -19940.548    27.617878    21141.718 
   25010    295.94395    564.43496   -19940.563    27.649512    21132.759 
   25020    307.33507   -625.51996   -19940.396    27.687625    21135.849 
   25030    301.26369     623.7323   -19940.356    27.676518    21127.916 
   25040    292.26692    494.54195   -19940.294    27.633885    21135.472 
   25043    294.59851    -62.68173   -19940.225     27.62375    21142.008 
Loop time of 137.161 on 8 procs for 25000 steps with 1500 atoms

Performance: 31.496 ns/day, 0.762 hours/ns, 182.268 timesteps/s
99.1% CPU use with 8 MPI tasks x 1 OpenMP threads

MPI task timing breakdown:
Section |  min time  |  avg time  |  max time  |%varavg| %total
---------------------------------------------------------------
Pair    | 85.098     | 86.658     | 88.004     |  11.7 | 63.18
Bond    | 0.0035348  | 0.0047555  | 0.0064051  |   1.2 |  0.00
Kspace  | 28.519     | 29.846     | 31.405     |  20.0 | 21.76
Neigh   | 0          | 0          | 0          |   0.0 |  0.00
Comm    | 2.8665     | 2.8846     | 2.9069     |   0.7 |  2.10
Output  | 0.050351   | 0.061331   | 0.13674    |  11.5 |  0.04
Modify  | 13.934     | 14.419     | 14.654     |   5.4 | 10.51
Other   |            | 3.288      |            |       |  2.40

Nlocal:        187.500 ave         196 max         175 min
Histogram: 1 0 2 0 0 0 0 1 3 1
Nghost:        4559.50 ave        4572 max        4551 min
Histogram: 1 3 1 0 0 0 0 2 0 1
Neighs:        62692.2 ave       65637 max       58464 min
Histogram: 1 1 1 0 0 0 1 0 2 2

Total # of neighbors = 501538
Ave neighs/atom = 334.35867
Ave special neighs/atom = 0.0000000
Neighbor list builds = 0
Dangerous builds = 0
Total wall time: 0:02:18
