Output produced by LAMMPSStructureWriter


1500 atoms
8 atom types
-13.67000000 13.67000000 xlo xhi
-13.67000000 13.67000000 ylo yhi
-13.67000000 13.67000000 zlo zhi
0.00000000 0.00000000 0.00000000 xy xz yz



Masses

1 15.99939999999999962199 #O
2 140.116 #Ce
3 232.0377 #Th
4 238.02890999999999621650 #U
5 237 #Np
6 244 # Pu
7 243 #Am
8 247 #Cm

Atoms

1 0 1 0.0 -1.36699999999999999289 -4.10099999999999997868 4.10099999999999997868
2 0 1 0.0 -1.36699999999999999289 -4.10099999999999997868 9.56900000000000083844
3 0 1 0.0 -1.36699999999999999289 -9.56900000000000083844 -1.36699999999999999289
4 0 1 0.0 -1.36699999999999999289 -9.56900000000000083844 4.10099999999999997868
5 0 1 0.0 -1.36699999999999999289 -9.56900000000000083844 -12.30300000000000082423
6 0 1 0.0 -1.36699999999999999289 -9.56900000000000083844 -6.83499999999999996447
7 0 1 0.0 -1.36699999999999999289 -4.10099999999999997868 -6.83499999999999996447
8 0 1 0.0 -1.36699999999999999289 -4.10099999999999997868 -1.36699999999999999289
9 0 1 0.0 -1.36699999999999999289 -9.56900000000000083844 9.56900000000000083844
10 0 1 0.0 -1.36699999999999999289 -4.10099999999999997868 -12.30300000000000082423
11 0 1 0.0 9.56900000000000083844 -1.36699999999999999289 6.83499999999999996447
12 0 1 0.0 9.56900000000000083844 -1.36699999999999999289 12.30300000000000082423
13 0 1 0.0 9.56900000000000083844 -1.36699999999999999289 -4.10099999999999997868
14 0 1 0.0 9.56900000000000083844 -1.36699999999999999289 1.36699999999999999289
15 0 1 0.0 9.56900000000000083844 -6.83499999999999996447 12.30300000000000082423
16 0 1 0.0 9.56900000000000083844 -1.36699999999999999289 -9.56900000000000083844
17 0 1 0.0 9.56900000000000083844 -6.83499999999999996447 1.36699999999999999289
18 0 1 0.0 9.56900000000000083844 -6.83499999999999996447 6.83499999999999996447
19 0 1 0.0 9.56900000000000083844 -6.83499999999999996447 -9.56900000000000083844
20 0 1 0.0 9.56900000000000083844 -6.83499999999999996447 -4.10099999999999997868
21 0 1 0.0 -4.10099999999999997868 4.10099999999999997868 -12.30300000000000082423
22 0 1 0.0 -4.10099999999999997868 4.10099999999999997868 -6.83499999999999996447
23 0 1 0.0 -4.10099999999999997868 4.10099999999999997868 -1.36699999999999999289
24 0 1 0.0 -4.10099999999999997868 4.10099999999999997868 4.10099999999999997868
25 0 1 0.0 -4.10099999999999997868 4.10099999999999997868 9.56900000000000083844
26 0 1 0.0 -4.10099999999999997868 9.56900000000000083844 -12.30300000000000082423
27 0 1 0.0 -4.10099999999999997868 9.56900000000000083844 -6.83499999999999996447
28 0 1 0.0 -4.10099999999999997868 9.56900000000000083844 -1.36699999999999999289
29 0 1 0.0 -4.10099999999999997868 9.56900000000000083844 4.10099999999999997868
30 0 1 0.0 -4.10099999999999997868 9.56900000000000083844 9.56900000000000083844
31 0 1 0.0 -4.10099999999999997868 1.36699999999999999289 -6.83499999999999996447
32 0 1 0.0 -4.10099999999999997868 1.36699999999999999289 -1.36699999999999999289
33 0 1 0.0 -4.10099999999999997868 -4.10099999999999997868 9.56900000000000083844
34 0 1 0.0 -4.10099999999999997868 1.36699999999999999289 -12.30300000000000082423
35 0 1 0.0 -4.10099999999999997868 -4.10099999999999997868 -1.36699999999999999289
36 0 1 0.0 -4.10099999999999997868 -4.10099999999999997868 4.10099999999999997868
37 0 1 0.0 -4.10099999999999997868 -4.10099999999999997868 -12.30300000000000082423
38 0 1 0.0 -4.10099999999999997868 -4.10099999999999997868 -6.83499999999999996447
39 0 1 0.0 -4.10099999999999997868 1.36699999999999999289 4.10099999999999997868
40 0 1 0.0 -4.10099999999999997868 1.36699999999999999289 9.56900000000000083844
41 0 1 0.0 -6.83499999999999996447 -1.36699999999999999289 1.36699999999999999289
42 0 1 0.0 -6.83499999999999996447 -1.36699999999999999289 6.83499999999999996447
43 0 1 0.0 -6.83499999999999996447 -1.36699999999999999289 -9.56900000000000083844
44 0 1 0.0 -6.83499999999999996447 -1.36699999999999999289 -4.10099999999999997868
45 0 1 0.0 -6.83499999999999996447 4.10099999999999997868 -4.10099999999999997868
46 0 1 0.0 -6.83499999999999996447 4.10099999999999997868 1.36699999999999999289
47 0 1 0.0 -6.83499999999999996447 -1.36699999999999999289 12.30300000000000082423
48 0 1 0.0 -6.83499999999999996447 4.10099999999999997868 -9.56900000000000083844
49 0 1 0.0 -6.83499999999999996447 4.10099999999999997868 6.83499999999999996447
50 0 1 0.0 -6.83499999999999996447 4.10099999999999997868 12.30300000000000082423
51 0 1 0.0 9.56900000000000083844 6.83499999999999996447 1.36699999999999999289
52 0 1 0.0 9.56900000000000083844 6.83499999999999996447 6.83499999999999996447
53 0 1 0.0 9.56900000000000083844 6.83499999999999996447 -9.56900000000000083844
54 0 1 0.0 9.56900000000000083844 6.83499999999999996447 -4.10099999999999997868
55 0 1 0.0 9.56900000000000083844 12.30300000000000082423 -4.10099999999999997868
56 0 1 0.0 9.56900000000000083844 12.30300000000000082423 1.36699999999999999289
57 0 1 0.0 9.56900000000000083844 6.83499999999999996447 12.30300000000000082423
58 0 1 0.0 9.56900000000000083844 12.30300000000000082423 -9.56900000000000083844
59 0 1 0.0 9.56900000000000083844 12.30300000000000082423 6.83499999999999996447
60 0 1 0.0 9.56900000000000083844 12.30300000000000082423 12.30300000000000082423
61 0 1 0.0 1.36699999999999999289 12.30300000000000082423 4.10099999999999997868
62 0 1 0.0 1.36699999999999999289 12.30300000000000082423 -1.36699999999999999289
63 0 1 0.0 1.36699999999999999289 12.30300000000000082423 -6.83499999999999996447
64 0 1 0.0 1.36699999999999999289 12.30300000000000082423 -12.30300000000000082423
65 0 1 0.0 6.83499999999999996447 -9.56900000000000083844 -1.36699999999999999289
66 0 1 0.0 6.83499999999999996447 -9.56900000000000083844 -6.83499999999999996447
67 0 1 0.0 6.83499999999999996447 -9.56900000000000083844 -12.30300000000000082423
68 0 1 0.0 1.36699999999999999289 12.30300000000000082423 9.56900000000000083844
69 0 1 0.0 6.83499999999999996447 -9.56900000000000083844 9.56900000000000083844
70 0 1 0.0 6.83499999999999996447 -9.56900000000000083844 4.10099999999999997868
71 0 1 0.0 -12.30300000000000082423 4.10099999999999997868 -1.36699999999999999289
72 0 1 0.0 -12.30300000000000082423 4.10099999999999997868 -6.83499999999999996447
73 0 1 0.0 -12.30300000000000082423 4.10099999999999997868 -12.30300000000000082423
74 0 1 0.0 -12.30300000000000082423 -1.36699999999999999289 9.56900000000000083844
75 0 1 0.0 -12.30300000000000082423 -1.36699999999999999289 4.10099999999999997868
76 0 1 0.0 -12.30300000000000082423 -1.36699999999999999289 -1.36699999999999999289
77 0 1 0.0 -12.30300000000000082423 -1.36699999999999999289 -6.83499999999999996447
78 0 1 0.0 -12.30300000000000082423 -1.36699999999999999289 -12.30300000000000082423
79 0 1 0.0 6.83499999999999996447 -4.10099999999999997868 1.36699999999999999289
80 0 1 0.0 6.83499999999999996447 -4.10099999999999997868 -4.10099999999999997868
81 0 1 0.0 6.83499999999999996447 -4.10099999999999997868 -9.56900000000000083844
82 0 1 0.0 6.83499999999999996447 -9.56900000000000083844 12.30300000000000082423
83 0 1 0.0 6.83499999999999996447 -9.56900000000000083844 6.83499999999999996447
84 0 1 0.0 6.83499999999999996447 -9.56900000000000083844 1.36699999999999999289
85 0 1 0.0 -12.30300000000000082423 4.10099999999999997868 9.56900000000000083844
86 0 1 0.0 -12.30300000000000082423 4.10099999999999997868 4.10099999999999997868
87 0 1 0.0 -1.36699999999999999289 -9.56900000000000083844 1.36699999999999999289
88 0 1 0.0 -1.36699999999999999289 -9.56900000000000083844 -4.10099999999999997868
89 0 1 0.0 -1.36699999999999999289 -9.56900000000000083844 -9.56900000000000083844
90 0 1 0.0 -6.83499999999999996447 12.30300000000000082423 12.30300000000000082423
91 0 1 0.0 -6.83499999999999996447 12.30300000000000082423 6.83499999999999996447
92 0 1 0.0 -12.30300000000000082423 6.83499999999999996447 -9.56900000000000083844
93 0 1 0.0 -6.83499999999999996447 12.30300000000000082423 -4.10099999999999997868
94 0 1 0.0 -6.83499999999999996447 12.30300000000000082423 -9.56900000000000083844
95 0 1 0.0 9.56900000000000083844 -12.30300000000000082423 12.30300000000000082423
96 0 1 0.0 9.56900000000000083844 -12.30300000000000082423 6.83499999999999996447
97 0 1 0.0 4.10099999999999997868 9.56900000000000083844 -4.10099999999999997868
98 0 1 0.0 4.10099999999999997868 9.56900000000000083844 -9.56900000000000083844
99 0 1 0.0 4.10099999999999997868 9.56900000000000083844 6.83499999999999996447
100 0 1 0.0 4.10099999999999997868 9.56900000000000083844 1.36699999999999999289
101 0 1 0.0 9.56900000000000083844 -12.30300000000000082423 -9.56900000000000083844
102 0 1 0.0 4.10099999999999997868 9.56900000000000083844 12.30300000000000082423
103 0 1 0.0 9.56900000000000083844 -12.30300000000000082423 1.36699999999999999289
104 0 1 0.0 9.56900000000000083844 -12.30300000000000082423 -4.10099999999999997868
105 0 1 0.0 1.36699999999999999289 -12.30300000000000082423 4.10099999999999997868
106 0 1 0.0 1.36699999999999999289 -12.30300000000000082423 -1.36699999999999999289
107 0 1 0.0 1.36699999999999999289 -12.30300000000000082423 -6.83499999999999996447
108 0 1 0.0 1.36699999999999999289 -12.30300000000000082423 -12.30300000000000082423
109 0 1 0.0 1.36699999999999999289 -6.83499999999999996447 -1.36699999999999999289
110 0 1 0.0 1.36699999999999999289 -6.83499999999999996447 -6.83499999999999996447
111 0 1 0.0 1.36699999999999999289 -6.83499999999999996447 -12.30300000000000082423
112 0 1 0.0 1.36699999999999999289 -12.30300000000000082423 9.56900000000000083844
113 0 1 0.0 1.36699999999999999289 -6.83499999999999996447 9.56900000000000083844
114 0 1 0.0 1.36699999999999999289 -6.83499999999999996447 4.10099999999999997868
115 0 1 0.0 -4.10099999999999997868 6.83499999999999996447 -6.83499999999999996447
116 0 1 0.0 -4.10099999999999997868 6.83499999999999996447 -12.30300000000000082423
117 0 1 0.0 -4.10099999999999997868 6.83499999999999996447 4.10099999999999997868
118 0 1 0.0 -4.10099999999999997868 6.83499999999999996447 -1.36699999999999999289
119 0 1 0.0 -4.10099999999999997868 12.30300000000000082423 -12.30300000000000082423
120 0 1 0.0 -4.10099999999999997868 6.83499999999999996447 9.56900000000000083844
121 0 1 0.0 -4.10099999999999997868 12.30300000000000082423 -1.36699999999999999289
122 0 1 0.0 -4.10099999999999997868 12.30300000000000082423 -6.83499999999999996447
123 0 1 0.0 -4.10099999999999997868 12.30300000000000082423 9.56900000000000083844
124 0 1 0.0 -4.10099999999999997868 12.30300000000000082423 4.10099999999999997868
125 0 1 0.0 -1.36699999999999999289 6.83499999999999996447 -12.30300000000000082423
126 0 1 0.0 -1.36699999999999999289 1.36699999999999999289 9.56900000000000083844
127 0 1 0.0 -1.36699999999999999289 6.83499999999999996447 -1.36699999999999999289
128 0 1 0.0 -1.36699999999999999289 6.83499999999999996447 -6.83499999999999996447
129 0 1 0.0 -1.36699999999999999289 1.36699999999999999289 -6.83499999999999996447
130 0 1 0.0 -1.36699999999999999289 1.36699999999999999289 -12.30300000000000082423
131 0 1 0.0 -1.36699999999999999289 1.36699999999999999289 4.10099999999999997868
132 0 1 0.0 -1.36699999999999999289 1.36699999999999999289 -1.36699999999999999289
133 0 1 0.0 -1.36699999999999999289 6.83499999999999996447 9.56900000000000083844
134 0 1 0.0 -1.36699999999999999289 6.83499999999999996447 4.10099999999999997868
135 0 1 0.0 -1.36699999999999999289 -12.30300000000000082423 12.30300000000000082423
136 0 1 0.0 -1.36699999999999999289 -12.30300000000000082423 6.83499999999999996447
137 0 1 0.0 -1.36699999999999999289 -12.30300000000000082423 -9.56900000000000083844
138 0 1 0.0 -6.83499999999999996447 9.56900000000000083844 12.30300000000000082423
139 0 1 0.0 -1.36699999999999999289 -12.30300000000000082423 1.36699999999999999289
140 0 1 0.0 -1.36699999999999999289 -12.30300000000000082423 -4.10099999999999997868
141 0 1 0.0 -6.83499999999999996447 9.56900000000000083844 -4.10099999999999997868
142 0 1 0.0 -6.83499999999999996447 9.56900000000000083844 -9.56900000000000083844
143 0 1 0.0 -6.83499999999999996447 9.56900000000000083844 6.83499999999999996447
144 0 1 0.0 -6.83499999999999996447 9.56900000000000083844 1.36699999999999999289
145 0 1 0.0 9.56900000000000083844 1.36699999999999999289 1.36699999999999999289
146 0 1 0.0 9.56900000000000083844 1.36699999999999999289 -4.10099999999999997868
147 0 1 0.0 9.56900000000000083844 -4.10099999999999997868 -4.10099999999999997868
148 0 1 0.0 9.56900000000000083844 -4.10099999999999997868 -9.56900000000000083844
149 0 1 0.0 9.56900000000000083844 -4.10099999999999997868 6.83499999999999996447
150 0 1 0.0 9.56900000000000083844 -4.10099999999999997868 1.36699999999999999289
151 0 1 0.0 1.36699999999999999289 -6.83499999999999996447 12.30300000000000082423
152 0 1 0.0 1.36699999999999999289 6.83499999999999996447 4.10099999999999997868
153 0 1 0.0 1.36699999999999999289 6.83499999999999996447 9.56900000000000083844
154 0 1 0.0 1.36699999999999999289 6.83499999999999996447 -6.83499999999999996447
155 0 1 0.0 1.36699999999999999289 6.83499999999999996447 -1.36699999999999999289
156 0 1 0.0 1.36699999999999999289 1.36699999999999999289 9.56900000000000083844
157 0 1 0.0 1.36699999999999999289 6.83499999999999996447 -12.30300000000000082423
158 0 1 0.0 1.36699999999999999289 1.36699999999999999289 -1.36699999999999999289
159 0 1 0.0 1.36699999999999999289 1.36699999999999999289 4.10099999999999997868
160 0 1 0.0 1.36699999999999999289 1.36699999999999999289 -12.30300000000000082423
161 0 1 0.0 1.36699999999999999289 1.36699999999999999289 -6.83499999999999996447
162 0 1 0.0 6.83499999999999996447 6.83499999999999996447 6.83499999999999996447
163 0 1 0.0 6.83499999999999996447 6.83499999999999996447 12.30300000000000082423
164 0 1 0.0 6.83499999999999996447 1.36699999999999999289 1.36699999999999999289
165 0 1 0.0 6.83499999999999996447 1.36699999999999999289 6.83499999999999996447
166 0 1 0.0 6.83499999999999996447 1.36699999999999999289 -9.56900000000000083844
167 0 1 0.0 6.83499999999999996447 1.36699999999999999289 -4.10099999999999997868
168 0 1 0.0 6.83499999999999996447 6.83499999999999996447 -4.10099999999999997868
169 0 1 0.0 6.83499999999999996447 6.83499999999999996447 1.36699999999999999289
170 0 1 0.0 6.83499999999999996447 1.36699999999999999289 12.30300000000000082423
171 0 1 0.0 6.83499999999999996447 6.83499999999999996447 -9.56900000000000083844
172 0 1 0.0 1.36699999999999999289 4.10099999999999997868 4.10099999999999997868
173 0 1 0.0 1.36699999999999999289 4.10099999999999997868 9.56900000000000083844
174 0 1 0.0 1.36699999999999999289 4.10099999999999997868 -6.83499999999999996447
175 0 1 0.0 1.36699999999999999289 4.10099999999999997868 -1.36699999999999999289
176 0 1 0.0 1.36699999999999999289 -1.36699999999999999289 9.56900000000000083844
177 0 1 0.0 1.36699999999999999289 4.10099999999999997868 -12.30300000000000082423
178 0 1 0.0 1.36699999999999999289 -1.36699999999999999289 -1.36699999999999999289
179 0 1 0.0 1.36699999999999999289 -1.36699999999999999289 4.10099999999999997868
180 0 1 0.0 1.36699999999999999289 -1.36699999999999999289 -12.30300000000000082423
181 0 1 0.0 1.36699999999999999289 -1.36699999999999999289 -6.83499999999999996447
182 0 1 0.0 -9.56900000000000083844 6.83499999999999996447 4.10099999999999997868
183 0 1 0.0 -9.56900000000000083844 6.83499999999999996447 9.56900000000000083844
184 0 1 0.0 -9.56900000000000083844 1.36699999999999999289 9.56900000000000083844
185 0 1 0.0 -9.56900000000000083844 6.83499999999999996447 -12.30300000000000082423
186 0 1 0.0 -9.56900000000000083844 6.83499999999999996447 -6.83499999999999996447
187 0 1 0.0 -9.56900000000000083844 6.83499999999999996447 -1.36699999999999999289
188 0 1 0.0 -9.56900000000000083844 1.36699999999999999289 -12.30300000000000082423
189 0 1 0.0 -9.56900000000000083844 1.36699999999999999289 -6.83499999999999996447
190 0 1 0.0 -9.56900000000000083844 1.36699999999999999289 -1.36699999999999999289
191 0 1 0.0 -9.56900000000000083844 1.36699999999999999289 4.10099999999999997868
192 0 1 0.0 9.56900000000000083844 1.36699999999999999289 -12.30300000000000082423
193 0 1 0.0 9.56900000000000083844 1.36699999999999999289 -6.83499999999999996447
194 0 1 0.0 9.56900000000000083844 1.36699999999999999289 -1.36699999999999999289
195 0 1 0.0 9.56900000000000083844 1.36699999999999999289 4.10099999999999997868
196 0 1 0.0 9.56900000000000083844 1.36699999999999999289 9.56900000000000083844
197 0 1 0.0 9.56900000000000083844 6.83499999999999996447 -12.30300000000000082423
198 0 1 0.0 9.56900000000000083844 6.83499999999999996447 -6.83499999999999996447
199 0 1 0.0 9.56900000000000083844 6.83499999999999996447 -1.36699999999999999289
200 0 1 0.0 9.56900000000000083844 6.83499999999999996447 4.10099999999999997868
201 0 1 0.0 9.56900000000000083844 6.83499999999999996447 9.56900000000000083844
202 0 1 0.0 9.56900000000000083844 -6.83499999999999996447 4.10099999999999997868
203 0 1 0.0 9.56900000000000083844 -6.83499999999999996447 9.56900000000000083844
204 0 1 0.0 9.56900000000000083844 -12.30300000000000082423 -12.30300000000000082423
205 0 1 0.0 9.56900000000000083844 -12.30300000000000082423 -6.83499999999999996447
206 0 1 0.0 9.56900000000000083844 -12.30300000000000082423 -1.36699999999999999289
207 0 1 0.0 9.56900000000000083844 -12.30300000000000082423 4.10099999999999997868
208 0 1 0.0 9.56900000000000083844 -12.30300000000000082423 9.56900000000000083844
209 0 1 0.0 9.56900000000000083844 -6.83499999999999996447 -12.30300000000000082423
210 0 1 0.0 9.56900000000000083844 -6.83499999999999996447 -6.83499999999999996447
211 0 1 0.0 9.56900000000000083844 -6.83499999999999996447 -1.36699999999999999289
212 0 1 0.0 4.10099999999999997868 -4.10099999999999997868 -4.10099999999999997868
213 0 1 0.0 4.10099999999999997868 -4.10099999999999997868 1.36699999999999999289
214 0 1 0.0 4.10099999999999997868 -9.56900000000000083844 12.30300000000000082423
215 0 1 0.0 4.10099999999999997868 -4.10099999999999997868 -9.56900000000000083844
216 0 1 0.0 4.10099999999999997868 -9.56900000000000083844 1.36699999999999999289
217 0 1 0.0 4.10099999999999997868 -9.56900000000000083844 6.83499999999999996447
218 0 1 0.0 12.30300000000000082423 -1.36699999999999999289 9.56900000000000083844
219 0 1 0.0 12.30300000000000082423 4.10099999999999997868 -12.30300000000000082423
220 0 1 0.0 12.30300000000000082423 4.10099999999999997868 -6.83499999999999996447
221 0 1 0.0 12.30300000000000082423 4.10099999999999997868 -1.36699999999999999289
222 0 1 0.0 12.30300000000000082423 -1.36699999999999999289 -12.30300000000000082423
223 0 1 0.0 4.10099999999999997868 -9.56900000000000083844 -9.56900000000000083844
224 0 1 0.0 12.30300000000000082423 -1.36699999999999999289 -1.36699999999999999289
225 0 1 0.0 12.30300000000000082423 -1.36699999999999999289 4.10099999999999997868
226 0 1 0.0 4.10099999999999997868 -9.56900000000000083844 -4.10099999999999997868
227 0 1 0.0 12.30300000000000082423 4.10099999999999997868 4.10099999999999997868
228 0 1 0.0 12.30300000000000082423 4.10099999999999997868 9.56900000000000083844
229 0 1 0.0 6.83499999999999996447 -6.83499999999999996447 9.56900000000000083844
230 0 1 0.0 6.83499999999999996447 -1.36699999999999999289 -12.30300000000000082423
231 0 1 0.0 6.83499999999999996447 -1.36699999999999999289 -6.83499999999999996447
232 0 1 0.0 6.83499999999999996447 -1.36699999999999999289 -1.36699999999999999289
233 0 1 0.0 6.83499999999999996447 -6.83499999999999996447 -12.30300000000000082423
234 0 1 0.0 6.83499999999999996447 -6.83499999999999996447 -6.83499999999999996447
235 0 1 0.0 6.83499999999999996447 -6.83499999999999996447 -1.36699999999999999289
236 0 1 0.0 6.83499999999999996447 -6.83499999999999996447 4.10099999999999997868
237 0 1 0.0 6.83499999999999996447 -1.36699999999999999289 4.10099999999999997868
238 0 1 0.0 6.83499999999999996447 -1.36699999999999999289 9.56900000000000083844
239 0 1 0.0 1.36699999999999999289 -4.10099999999999997868 9.56900000000000083844
240 0 1 0.0 1.36699999999999999289 -4.10099999999999997868 4.10099999999999997868
241 0 1 0.0 1.36699999999999999289 -9.56900000000000083844 -6.83499999999999996447
242 0 1 0.0 1.36699999999999999289 -9.56900000000000083844 -12.30300000000000082423
243 0 1 0.0 1.36699999999999999289 -9.56900000000000083844 4.10099999999999997868
244 0 1 0.0 1.36699999999999999289 -9.56900000000000083844 -1.36699999999999999289
245 0 1 0.0 1.36699999999999999289 -4.10099999999999997868 -12.30300000000000082423
246 0 1 0.0 1.36699999999999999289 -9.56900000000000083844 9.56900000000000083844
247 0 1 0.0 1.36699999999999999289 -4.10099999999999997868 -1.36699999999999999289
248 0 1 0.0 1.36699999999999999289 -4.10099999999999997868 -6.83499999999999996447
249 0 1 0.0 12.30300000000000082423 -9.56900000000000083844 -9.56900000000000083844
250 0 1 0.0 6.83499999999999996447 12.30300000000000082423 12.30300000000000082423
251 0 1 0.0 12.30300000000000082423 -9.56900000000000083844 1.36699999999999999289
252 0 1 0.0 12.30300000000000082423 -9.56900000000000083844 -4.10099999999999997868
253 0 1 0.0 6.83499999999999996447 12.30300000000000082423 -4.10099999999999997868
254 0 1 0.0 6.83499999999999996447 12.30300000000000082423 -9.56900000000000083844
255 0 1 0.0 6.83499999999999996447 12.30300000000000082423 6.83499999999999996447
256 0 1 0.0 6.83499999999999996447 12.30300000000000082423 1.36699999999999999289
257 0 1 0.0 12.30300000000000082423 -9.56900000000000083844 12.30300000000000082423
258 0 1 0.0 12.30300000000000082423 -9.56900000000000083844 6.83499999999999996447
259 0 1 0.0 -6.83499999999999996447 -1.36699999999999999289 9.56900000000000083844
260 0 1 0.0 -6.83499999999999996447 -1.36699999999999999289 4.10099999999999997868
261 0 1 0.0 -6.83499999999999996447 -6.83499999999999996447 -6.83499999999999996447
262 0 1 0.0 -6.83499999999999996447 -6.83499999999999996447 -12.30300000000000082423
263 0 1 0.0 -6.83499999999999996447 -6.83499999999999996447 4.10099999999999997868
264 0 1 0.0 -6.83499999999999996447 -6.83499999999999996447 -1.36699999999999999289
265 0 1 0.0 -6.83499999999999996447 -1.36699999999999999289 -12.30300000000000082423
266 0 1 0.0 -6.83499999999999996447 -6.83499999999999996447 9.56900000000000083844
267 0 1 0.0 -6.83499999999999996447 -1.36699999999999999289 -1.36699999999999999289
268 0 1 0.0 -6.83499999999999996447 -1.36699999999999999289 -6.83499999999999996447
269 0 1 0.0 4.10099999999999997868 -4.10099999999999997868 9.56900000000000083844
270 0 1 0.0 4.10099999999999997868 -4.10099999999999997868 4.10099999999999997868
271 0 1 0.0 4.10099999999999997868 -4.10099999999999997868 -1.36699999999999999289
272 0 1 0.0 6.83499999999999996447 -12.30300000000000082423 9.56900000000000083844
273 0 1 0.0 6.83499999999999996447 -12.30300000000000082423 4.10099999999999997868
274 0 1 0.0 1.36699999999999999289 9.56900000000000083844 -6.83499999999999996447
275 0 1 0.0 1.36699999999999999289 9.56900000000000083844 -12.30300000000000082423
276 0 1 0.0 1.36699999999999999289 9.56900000000000083844 4.10099999999999997868
277 0 1 0.0 1.36699999999999999289 9.56900000000000083844 -1.36699999999999999289
278 0 1 0.0 6.83499999999999996447 -12.30300000000000082423 -12.30300000000000082423
279 0 1 0.0 1.36699999999999999289 9.56900000000000083844 9.56900000000000083844
280 0 1 0.0 6.83499999999999996447 -12.30300000000000082423 -1.36699999999999999289
281 0 1 0.0 6.83499999999999996447 -12.30300000000000082423 -6.83499999999999996447
282 0 1 0.0 -4.10099999999999997868 -9.56900000000000083844 9.56900000000000083844
283 0 1 0.0 -4.10099999999999997868 -9.56900000000000083844 4.10099999999999997868
284 0 1 0.0 -4.10099999999999997868 -9.56900000000000083844 -1.36699999999999999289
285 0 1 0.0 -4.10099999999999997868 -9.56900000000000083844 -6.83499999999999996447
286 0 1 0.0 -4.10099999999999997868 -9.56900000000000083844 -12.30300000000000082423
287 0 1 0.0 -9.56900000000000083844 12.30300000000000082423 9.56900000000000083844
288 0 1 0.0 -9.56900000000000083844 12.30300000000000082423 4.10099999999999997868
289 0 1 0.0 -9.56900000000000083844 12.30300000000000082423 -1.36699999999999999289
290 0 1 0.0 -9.56900000000000083844 12.30300000000000082423 -6.83499999999999996447
291 0 1 0.0 -9.56900000000000083844 12.30300000000000082423 -12.30300000000000082423
292 0 1 0.0 9.56900000000000083844 12.30300000000000082423 4.10099999999999997868
293 0 1 0.0 9.56900000000000083844 12.30300000000000082423 -1.36699999999999999289
294 0 1 0.0 9.56900000000000083844 12.30300000000000082423 -6.83499999999999996447
295 0 1 0.0 9.56900000000000083844 12.30300000000000082423 -12.30300000000000082423
296 0 1 0.0 -12.30300000000000082423 -9.56900000000000083844 1.36699999999999999289
297 0 1 0.0 -12.30300000000000082423 -9.56900000000000083844 -4.10099999999999997868
298 0 1 0.0 -12.30300000000000082423 -9.56900000000000083844 -9.56900000000000083844
299 0 1 0.0 9.56900000000000083844 12.30300000000000082423 9.56900000000000083844
300 0 1 0.0 -12.30300000000000082423 -9.56900000000000083844 12.30300000000000082423
301 0 1 0.0 -12.30300000000000082423 -9.56900000000000083844 6.83499999999999996447
302 0 1 0.0 9.56900000000000083844 4.10099999999999997868 9.56900000000000083844
303 0 1 0.0 9.56900000000000083844 4.10099999999999997868 4.10099999999999997868
304 0 1 0.0 9.56900000000000083844 -1.36699999999999999289 4.10099999999999997868
305 0 1 0.0 9.56900000000000083844 -1.36699999999999999289 -1.36699999999999999289
306 0 1 0.0 9.56900000000000083844 -1.36699999999999999289 -6.83499999999999996447
307 0 1 0.0 9.56900000000000083844 -1.36699999999999999289 -12.30300000000000082423
308 0 1 0.0 9.56900000000000083844 4.10099999999999997868 -1.36699999999999999289
309 0 1 0.0 9.56900000000000083844 4.10099999999999997868 -6.83499999999999996447
310 0 1 0.0 9.56900000000000083844 4.10099999999999997868 -12.30300000000000082423
311 0 1 0.0 9.56900000000000083844 -1.36699999999999999289 9.56900000000000083844
312 0 1 0.0 12.30300000000000082423 -6.83499999999999996447 -1.36699999999999999289
313 0 1 0.0 12.30300000000000082423 -6.83499999999999996447 -6.83499999999999996447
314 0 1 0.0 12.30300000000000082423 -6.83499999999999996447 -12.30300000000000082423
315 0 1 0.0 12.30300000000000082423 -12.30300000000000082423 9.56900000000000083844
316 0 1 0.0 12.30300000000000082423 -12.30300000000000082423 4.10099999999999997868
317 0 1 0.0 12.30300000000000082423 -12.30300000000000082423 -1.36699999999999999289
318 0 1 0.0 12.30300000000000082423 -12.30300000000000082423 -6.83499999999999996447
319 0 1 0.0 12.30300000000000082423 -12.30300000000000082423 -12.30300000000000082423
320 0 1 0.0 12.30300000000000082423 -6.83499999999999996447 9.56900000000000083844
321 0 1 0.0 12.30300000000000082423 -6.83499999999999996447 4.10099999999999997868
322 0 1 0.0 6.83499999999999996447 9.56900000000000083844 -1.36699999999999999289
323 0 1 0.0 6.83499999999999996447 9.56900000000000083844 -6.83499999999999996447
324 0 1 0.0 6.83499999999999996447 9.56900000000000083844 -12.30300000000000082423
325 0 1 0.0 6.83499999999999996447 4.10099999999999997868 9.56900000000000083844
326 0 1 0.0 6.83499999999999996447 4.10099999999999997868 4.10099999999999997868
327 0 1 0.0 6.83499999999999996447 4.10099999999999997868 -1.36699999999999999289
328 0 1 0.0 6.83499999999999996447 4.10099999999999997868 -6.83499999999999996447
329 0 1 0.0 6.83499999999999996447 4.10099999999999997868 -12.30300000000000082423
330 0 1 0.0 6.83499999999999996447 9.56900000000000083844 9.56900000000000083844
331 0 1 0.0 6.83499999999999996447 9.56900000000000083844 4.10099999999999997868
332 0 1 0.0 -4.10099999999999997868 -9.56900000000000083844 -9.56900000000000083844
333 0 1 0.0 -4.10099999999999997868 -9.56900000000000083844 -4.10099999999999997868
334 0 1 0.0 -4.10099999999999997868 -9.56900000000000083844 1.36699999999999999289
335 0 1 0.0 -4.10099999999999997868 -9.56900000000000083844 6.83499999999999996447
336 0 1 0.0 -4.10099999999999997868 -9.56900000000000083844 12.30300000000000082423
337 0 1 0.0 -4.10099999999999997868 -4.10099999999999997868 -9.56900000000000083844
338 0 1 0.0 -4.10099999999999997868 -4.10099999999999997868 -4.10099999999999997868
339 0 1 0.0 -4.10099999999999997868 -4.10099999999999997868 1.36699999999999999289
340 0 1 0.0 -4.10099999999999997868 -4.10099999999999997868 6.83499999999999996447
341 0 1 0.0 -4.10099999999999997868 -4.10099999999999997868 12.30300000000000082423
342 0 1 0.0 -6.83499999999999996447 -12.30300000000000082423 4.10099999999999997868
343 0 1 0.0 -6.83499999999999996447 -12.30300000000000082423 9.56900000000000083844
344 0 1 0.0 -6.83499999999999996447 -12.30300000000000082423 -6.83499999999999996447
345 0 1 0.0 -6.83499999999999996447 -12.30300000000000082423 -1.36699999999999999289
346 0 1 0.0 -12.30300000000000082423 9.56900000000000083844 9.56900000000000083844
347 0 1 0.0 -6.83499999999999996447 -12.30300000000000082423 -12.30300000000000082423
348 0 1 0.0 -12.30300000000000082423 9.56900000000000083844 -1.36699999999999999289
349 0 1 0.0 -12.30300000000000082423 9.56900000000000083844 4.10099999999999997868
350 0 1 0.0 -12.30300000000000082423 9.56900000000000083844 -12.30300000000000082423
351 0 1 0.0 -12.30300000000000082423 9.56900000000000083844 -6.83499999999999996447
352 0 1 0.0 6.83499999999999996447 -4.10099999999999997868 12.30300000000000082423
353 0 1 0.0 6.83499999999999996447 -4.10099999999999997868 6.83499999999999996447
354 0 1 0.0 6.83499999999999996447 -9.56900000000000083844 -4.10099999999999997868
355 0 1 0.0 6.83499999999999996447 -9.56900000000000083844 -9.56900000000000083844
356 0 1 0.0 -12.30300000000000082423 -12.30300000000000082423 -12.30300000000000082423
357 0 1 0.0 -6.83499999999999996447 12.30300000000000082423 4.10099999999999997868
358 0 1 0.0 -6.83499999999999996447 12.30300000000000082423 9.56900000000000083844