LAMMPS (29 Sep 2021)
OMP_NUM_THREADS environment is not set. Defaulting to 1 thread. (src/comm.cpp:98)
  using 1 OpenMP thread(s) per MPI task
# set periodic boundaries, units and thero-baro damping
boundary p p p
atom_style full
units metal
variable THERMO_DAMP equal 0.1
variable BARO_DAMP equal 0.5

# import UO2 single cell fluorite structure and assign atom labels
read_data UO2-single_cell.lmpstruct
Reading data file ...
  orthogonal box = (0.0000000 0.0000000 0.0000000) to (5.4680000 5.4680000 5.4680000)
  2 by 2 by 2 MPI processor grid
  reading atoms ...
  12 atoms
Finding 1-2 1-3 1-4 neighbors ...
  special bond factors lj:    0        0        0       
  special bond factors coul:  0        0        0       
     0 = max # of 1-2 neighbors
     0 = max # of 1-3 neighbors
     0 = max # of 1-4 neighbors
     1 = max # of special neighbors
  special bonds CPU = 0.003 seconds
  read_data CPU = 0.006 seconds
variable O equal 1
variable U equal 2

# set charges
set type $O charge -1.1104
set type 1 charge -1.1104
Setting atom values ...
  8 settings made for charge
set type $U charge 2.2208
set type 2 charge 2.2208
Setting atom values ...
  4 settings made for charge

# define interatomic potential via coulombic and embed_UO2.fs tabulation
kspace_style pppm 1.0e-5
variable SR_CUTOFF equal 11.0
pair_style hybrid/overlay coul/long ${SR_CUTOFF} eam/alloy
pair_style hybrid/overlay coul/long 11 eam/alloy
pair_coeff   *    *    coul/long
pair_coeff   *    *    eam/alloy CeThUNpPuAmCmO.eam.alloy O U

#Perform minimization
fix boxrelax_fix all box/relax aniso 0.0 vmax 0.001
thermo 1
thermo_style custom step cpu press etotal lx cella cellb cellc cellalpha cellbeta cellgamma
min_style sd
min_modify line quadratic dmax 0.05
minimize 1.0e-25 1.0e-25 1000 10000
WARNING: Using 'neigh_modify every 1 delay 0 check yes' setting during minimization (src/min.cpp:188)
PPPM initialization ...
  using 12-bit tables for long-range coulomb (src/kspace.cpp:340)
  G vector (1/distance) = 0.31369845
  grid = 8 8 8
  stencil order = 5
  estimated absolute RMS force accuracy = 5.1527863e-05
  estimated relative force accuracy = 3.578412e-06
  using double precision FFTW3
  3d grid and FFT values/proc = 1331 64
Neighbor list info ...
  update every 1 steps, delay 0 steps, check yes
  max neighbors/atom: 2000, page size: 100000
  master list distance cutoff = 13
  ghost atom cutoff = 13
  binsize = 6.5, bins = 1 1 1
  2 neighbor lists, perpetual/occasional/extra = 2 0 0
  (1) pair coul/long, perpetual
      attributes: half, newton on
      pair build: half/bin/newton
      stencil: half/bin/3d
      bin: standard
  (2) pair eam/alloy, perpetual, copy from (1)
      attributes: half, newton on
      pair build: copy
      stencil: none
      bin: none
Per MPI rank memory allocation (min/avg/max) = 8.210 | 8.210 | 8.210 Mbytes
Step CPU Press TotEng Lx Cella Cellb Cellc CellAlpha CellBeta CellGamma 
       0            0   -17290.695   -162.70875        5.468        5.468        5.468        5.468           90           90           90 
       1 0.00030112267   -10944.393    -162.7131     5.462532     5.462532     5.462532     5.462532           90           90           90 
       2 0.00070405006   -4494.2094   -162.71542     5.457064     5.457064     5.457064     5.457064           90           90           90 
       3 0.0013802052    -8.056824   -162.71587    5.4533119    5.4533119    5.4533119    5.4533119           90           90           90 
       4 0.0060241222    -8.056824   -162.71587    5.4533119    5.4533119    5.4533119    5.4533119           90           90           90 
Loop time of 0.0060612 on 8 procs for 4 steps with 12 atoms

48.0% CPU use with 8 MPI tasks x 1 OpenMP threads

Minimization stats:
  Stopping criterion = linesearch alpha is zero
  Energy initial, next-to-last, final = 
     -162.708752505872  -162.715874988456  -162.715874988456
  Force two-norm initial, final = 3.0559641 0.0014163263
  Force max component initial, final = 1.7643617 0.00081771638
  Final line search alpha, max atom move = 0.0039062500 3.1942046e-06
  Iterations, force evaluations = 4 21

MPI task timing breakdown:
Section |  min time  |  avg time  |  max time  |%varavg| %total
---------------------------------------------------------------
Pair    | 0.0016379  | 0.0016961  | 0.0018353  |   0.1 | 27.98
Bond    | 0          | 1.7881e-06 | 5.0068e-06 |   0.0 |  0.03
Kspace  | 0.0014434  | 0.0015864  | 0.0016766  |   0.2 | 26.17
Neigh   | 0          | 0          | 0          |   0.0 |  0.00
Comm    | 0.0012748  | 0.0013161  | 0.0013394  |   0.1 | 21.71
Output  | 3.8862e-05 | 4.8965e-05 | 9.9897e-05 |   0.0 |  0.81
Modify  | 0          | 0          | 0          |   0.0 |  0.00
Other   |            | 0.001412   |            |       | 23.29

Nlocal:        1.50000 ave           2 max           1 min
Histogram: 4 0 0 0 0 0 0 0 0 4
Nghost:        1829.50 ave        1830 max        1829 min
Histogram: 4 0 0 0 0 0 0 0 0 4
Neighs:        502.000 ave         757 max         301 min
Histogram: 2 1 1 0 1 0 1 0 0 2

Total # of neighbors = 4016
Ave neighs/atom = 334.66667
Ave special neighs/atom = 0.0000000
Neighbor list builds = 0
Dangerous builds = 0
unfix boxrelax_fix


# Create 4x4x4 supercell containing 768 atoms
replicate 4 4 4
Replicating atoms ...
  orthogonal box = (0.0073440578 0.0073440578 0.0073440578) to (21.820592 21.820592 21.820592)
  2 by 2 by 2 MPI processor grid
  768 atoms
Finding 1-2 1-3 1-4 neighbors ...
  special bond factors lj:    0        0        0       
  special bond factors coul:  0        0        0       
     0 = max # of 1-2 neighbors
     0 = max # of 1-3 neighbors
     0 = max # of 1-4 neighbors
     1 = max # of special neighbors
  special bonds CPU = 0.000 seconds
  replicate CPU = 0.007 seconds

# create initial velocities and set timestep
velocity all create 300 160278
timestep 0.002

# Set-up thermostat
fix thermostat_fix all npt temp 300 300 ${THERMO_DAMP} aniso 0.0 0.0 ${BARO_DAMP}
fix thermostat_fix all npt temp 300 300 0.1 aniso 0.0 0.0 ${BARO_DAMP}
fix thermostat_fix all npt temp 300 300 0.1 aniso 0.0 0.0 0.5

thermo_style one
thermo 10

neigh_modify delay 0 every 1 check yes

# equilibrate for 50ps
run 25000
PPPM initialization ...
  using 12-bit tables for long-range coulomb (src/kspace.cpp:340)
  G vector (1/distance) = 0.30039101
  grid = 25 25 25
  stencil order = 5
  estimated absolute RMS force accuracy = 0.0001454392
  estimated relative force accuracy = 1.0100193e-05
  using double precision FFTW3
  3d grid and FFT values/proc = 8000 2500
Per MPI rank memory allocation (min/avg/max) = 7.639 | 7.655 | 7.696 Mbytes
Step Temp E_pair E_mol TotEng Press Volume 
       4          300   -10413.825            0   -10384.083    3040.8568    10379.131 
      10    147.07113   -10398.526            0   -10383.945    6131.5663    10390.416 
      20    170.27559   -10400.463            0   -10383.581   -6856.2681    10460.239 
      30    148.94149   -10397.772            0   -10383.005   -4929.1558    10449.204 
      40     112.7828   -10393.509            0   -10382.328    9786.4404    10382.877 
      50    138.76642   -10395.519            0   -10381.762   -544.71973    10431.043 
      60    186.48881   -10399.293            0   -10380.804   -9396.7592    10470.314 
      70     163.4991   -10396.121            0   -10379.911    6314.2931    10398.718 
      80     186.7343   -10397.423            0    -10378.91    5573.9073    10402.179 
      90    184.68838   -10396.145            0   -10377.835   -8792.0418     10474.62 
     100     191.1273   -10395.781            0   -10376.833   -794.48623    10437.999 
     110    199.49326   -10395.403            0   -10375.624    8692.9223    10392.505 
     120    177.87948   -10392.221            0   -10374.586   -3552.2882    10454.726 
     130    181.32547   -10391.396            0   -10373.419   -5535.1415    10472.166 
     140    203.54636   -10392.463            0   -10372.283    4755.3487    10418.951 
     150    227.46628   -10393.552            0       -10371    2755.2078    10425.826 
     160    229.77397   -10392.468            0   -10369.687   -5138.1566    10467.869 
     170     239.4013   -10392.173            0   -10368.438    114.22503    10443.521 
     180    230.53267   -10390.081            0   -10367.225    5177.0085    10424.003 
     190    225.09048   -10388.249            0   -10365.933   -3289.3752     10467.57 
     200    248.62938   -10389.332            0   -10364.682   -2969.9045    10468.682 
     210     250.8782   -10388.218            0   -10363.345    4142.3653    10433.372 
     220    261.29239   -10388.005            0     -10362.1    999.59898    10449.526 
     230    257.94897   -10386.396            0   -10360.822   -4065.8659    10479.324 
     240    272.66216   -10386.629            0   -10359.597    584.05413    10456.245 
     250    282.44416   -10386.364            0   -10358.362    4551.4034    10441.707 
     260    292.33704    -10386.24            0   -10357.257   -3503.4139     10481.45 
     270    277.72386   -10383.726            0   -10356.192    -2858.933    10479.576 
     280    277.12424   -10382.556            0   -10355.081    5744.9912    10443.423 
     290    298.14291   -10383.699            0   -10354.141   -681.35751    10473.703 
     300    320.28889   -10384.873            0   -10353.119   -6253.5544    10496.205 
     310    309.34087   -10382.902            0   -10352.233    4796.5868    10446.301 
     320    302.84463   -10381.621            0   -10351.596    3872.2129    10452.813 
     330    319.66349   -10382.715            0   -10351.023    -6814.461    10505.393 
     340    304.81122   -10380.827            0   -10350.608   -25.902938    10475.367 
     350    322.90253   -10382.211            0   -10350.198    6877.1292    10444.772 
     360    317.66241   -10381.537            0   -10350.043   -4463.5663    10498.602 
     370    297.64259   -10379.423            0   -10349.914   -4251.8409    10498.283 
     380    308.61189   -10380.414            0   -10349.818    7206.8432    10444.759 
     390    321.81177    -10381.83            0   -10349.924   -443.77816    10478.211 
     400     347.4196   -10384.565            0   -10350.121   -7092.6723    10504.294 
     410    327.79696   -10383.202            0   -10350.703    5243.2554      10446.9 
     420     290.0294   -10380.207            0   -10351.453    4299.3016    10455.319 
     430    283.50978   -10380.155            0   -10352.047   -7592.7154    10512.492 
     440    298.38895   -10382.201            0   -10352.618   -233.04766    10475.267 
     450    293.76867    -10382.02            0   -10352.895    6821.1477    10440.038 
     460    306.90648    -10383.75            0   -10353.322   -3738.4288    10485.711 
     470    320.00965   -10385.574            0   -10353.847   -3489.1615    10483.569 
     480    308.05418   -10384.936            0   -10354.395    5310.6014    10441.734 
     490    306.95441   -10385.502            0    -10355.07    86.711269    10464.547 
     500    293.71244   -10384.809            0   -10355.689   -4550.3482     10487.87 
     510    291.89495   -10385.223            0   -10356.284    1920.3569    10453.916 
     520    275.47862   -10384.041            0   -10356.729    4158.5639    10446.777 
     530     270.4934     -10383.8            0   -10356.983    -4184.779    10489.941 
     540    281.98591   -10385.035            0   -10357.078   -2484.4376    10477.942 
     550    291.62114   -10385.899            0   -10356.987    5692.1652    10437.476 
     560    282.45045   -10384.861            0   -10356.858   -989.77801     10467.82 
     570    264.33095   -10382.723            0   -10356.516   -3349.2729    10487.664 
     580    280.61094   -10383.882            0   -10356.062    1642.0887    10462.041 
     590    304.07557   -10385.574            0   -10355.427    1360.9494    10456.077 
     600    297.50021   -10384.273            0   -10354.778    -480.3122    10472.872 
     610    298.21508   -10383.711            0   -10354.145   -2070.0182    10478.931 
     620    306.81278   -10384.032            0   -10353.613    2123.0308      10458.1 
     630    298.35916   -10382.722            0   -10353.142    1373.0466     10466.91 
     640    291.67504   -10381.516            0   -10352.598   -4016.3278    10490.482 
     650    307.32871   -10382.552            0   -10352.083    1546.7393    10464.607 
     660    321.82116   -10383.519            0   -10351.613    2998.7695    10458.132 
     670    314.28023   -10382.449            0    -10351.29   -3278.3446    10488.333 
     680    310.94776   -10381.941            0   -10351.112   -302.47634    10479.283 
     690    320.10266   -10382.766            0    -10351.03     2165.193    10464.248 
     700    312.80429   -10382.103            0   -10351.091    -1127.157    10476.682 
     710     322.1216   -10383.253            0   -10351.317   -1175.9032    10473.816 
     720    302.56337   -10381.658            0   -10351.661    2716.6318    10459.811 
     730    287.60261   -10380.557            0   -10352.043   -452.88909    10478.273 
     740     311.7365   -10383.281            0   -10352.374   -3542.6079     10487.03 
     750    298.19816   -10382.296            0   -10352.732    2625.7061    10454.891 
     760    308.48421   -10383.698            0   -10353.114    2572.4059    10455.131 
     770    289.90704   -10382.264            0   -10353.521   -2937.8258    10488.414 
     780    306.20252    -10384.26            0   -10353.903   -2455.8402    10481.233 
     790    297.98674    -10383.76            0   -10354.217    4323.0077    10447.426 
     800    307.56714   -10385.109            0   -10354.616    139.52118    10466.105 
     810    315.82413   -10386.368            0   -10355.057   -4537.7073    10484.591 
     820    299.87773   -10385.298            0   -10355.567    2965.2124    10450.518 
     830    267.03195   -10382.452            0   -10355.978    2922.3053    10454.501 
     840    256.03848   -10381.565            0   -10356.181   -4208.9697     10491.72 
     850    284.83977   -10384.423            0   -10356.183   -922.55595    10474.466 
     860    289.21697   -10384.573            0   -10355.899     3779.876    10447.884 
     870    297.23679   -10385.039            0    -10355.57   -783.27633    10468.377 
     880    303.74856   -10385.355            0    -10355.24     -2368.95    10479.945 
     890    305.05533   -10385.222            0   -10354.978    1419.3046    10459.109 
     900    295.54638   -10384.009            0   -10354.708    1731.2817    10458.621 
     910    281.69421   -10382.302            0   -10354.374   -2665.3548    10480.274 
     920    293.01691   -10383.029            0   -10353.978    165.05798    10468.932 
     930    283.03687   -10381.548            0   -10353.487    2524.4681    10459.475 
     940    314.83974   -10384.142            0   -10352.928   -2237.3934    10479.676 
     950    322.97701   -10384.474            0   -10352.453   -859.95134    10473.968 
     960     336.1916   -10385.532            0   -10352.201    2249.5755    10455.953 
     970    324.07342   -10384.335            0   -10352.206    -92.18159    10467.515 
     980    300.90984   -10382.225            0   -10352.392    -1672.823     10480.32 
     990    286.22778   -10381.001            0   -10352.624    600.92667    10470.462 
    1000    281.72684    -10380.65            0   -10352.719    1072.4169    10467.358 
    1010    300.56651   -10382.496            0   -10352.697   -1508.8739    10478.269 
    1020    299.14267    -10382.31            0   -10352.652   -137.41646    10470.231 
    1030    311.56887   -10383.525            0   -10352.635     2546.484    10460.411 
    1040     315.8189   -10384.036            0   -10352.725   -1947.2596    10481.409 
    1050    309.64273   -10383.594            0   -10352.896   -2066.3546    10479.289 
    1060    312.12008   -10384.126            0   -10353.181    3996.5728    10451.251 
    1070    289.54517    -10382.25            0   -10353.544    43.148445    10472.694 
    1080    289.73526   -10382.474            0   -10353.749   -5343.5877    10496.195 
    1090    280.12953   -10381.716            0   -10353.944    3636.0912    10454.447 
    1100    301.71946   -10383.893            0    -10353.98    3371.2608    10452.537 
    1110    298.05925   -10383.534            0   -10353.983   -5646.6532    10496.205 
    1120    309.38916   -10384.795            0   -10354.121   -857.91803    10468.359 
    1130    319.46224   -10385.814            0   -10354.142    7331.9167    10428.678 
    1140    291.23639   -10383.324            0    -10354.45   -2465.8499    10483.529 
    1150    296.49964   -10383.955            0    -10354.56    -7756.476    10507.289 
    1160    301.11309   -10384.584            0   -10354.731    6758.2316    10433.662 
    1170    296.05872   -10384.271            0   -10354.919    4901.1718    10443.843 
    1180     282.4256   -10382.871            0    -10354.87   -9374.9305    10517.315 
    1190    295.59275   -10384.358            0   -10355.052   -1178.1223    10470.742 
    1200    294.60344   -10384.015            0   -10354.807    11338.773    10411.827 
    1210    290.20486   -10383.625            0   -10354.854    -4393.283     10492.88 
    1220     300.1595   -10384.394            0   -10354.636   -9995.2545    10516.129 
    1230    289.94534   -10383.152            0   -10354.406    10825.563    10418.869 
    1240    290.46203   -10383.099            0   -10354.301    3406.4382     10452.73 
    1250    287.70756   -10382.302            0   -10353.778   -11970.152    10529.166 
    1260    289.69859   -10382.242            0    -10353.52    3680.0185    10457.645 
    1270    310.38837   -10383.754            0   -10352.981    8576.6579    10429.623 
    1280    328.65674   -10385.209            0   -10352.625    -7791.902    10507.571 
    1290    309.20715   -10383.127            0   -10352.471   -3545.7678     10490.12 
    1300    308.91706   -10382.936            0   -10352.309    8540.5277     10428.66 
    1310    304.48674   -10382.597            0    -10352.41    -336.8186    10473.952 
    1320    289.66703   -10381.064            0   -10352.346    -7585.549    10513.611 
    1330     305.7812   -10382.738            0   -10352.422     3574.303    10456.383 
    1340    306.85654   -10382.811            0   -10352.388    5015.5339    10446.557 
    1350    307.34876   -10382.897            0   -10352.425   -5944.5633    10497.637 
    1360    301.83045   -10382.488            0   -10352.564    -262.0442    10476.788 
    1370    302.90534   -10382.701            0    -10352.67     4651.876    10451.487 
    1380    300.51249   -10382.659            0   -10352.865   -2725.5183    10481.563 
    1390      294.425   -10382.217            0   -10353.027   -1501.6193    10481.092 
    1400    313.39685    -10384.27            0   -10353.199    2149.0234     10458.82 
    1410    300.99735   -10383.247            0   -10353.405    527.05787    10466.627 
    1420    303.38793   -10383.743            0   -10353.664   -2061.1659    10479.173 
    1430    305.71891   -10384.321            0   -10354.011    1039.6601    10466.272 
    1440     316.4645   -10385.765            0    -10354.39   -188.20565    10461.973 
    1450    297.60159   -10384.305            0     -10354.8    566.20035     10462.02 
    1460    280.48809   -10382.967            0   -10355.159    8.6271806    10469.236 
    1470    291.07983   -10384.266            0   -10355.407   -1049.1953    10473.145 
    1480    282.58795   -10383.562            0   -10355.545    437.44019    10465.268 
    1490    282.64979    -10383.55            0   -10355.527    253.33086    10462.388 
    1500    277.52103   -10382.893            0   -10355.379    797.52904    10465.265 
    1510    298.00275   -10384.665            0    -10355.12   -1198.3532    10475.167 
    1520     299.8211   -10384.503            0   -10354.778   -444.77867    10471.416 
    1530    304.74822   -10384.658            0   -10354.445     859.4788     10460.04 
    1540    304.15841   -10384.291            0   -10354.136    1230.2522    10463.271 
    1550    295.20753   -10383.129            0   -10353.861      -1972.4    10480.557 
    1560    288.30292     -10382.2            0   -10353.617   -172.36929    10472.156 
    1570    314.69907   -10384.521            0   -10353.321    1855.8982    10459.863 
    1580    294.43708   -10382.254            0   -10353.063    -256.5023    10474.181 
    1590     292.6991   -10381.804            0   -10352.785   -2568.4501    10484.776 
    1600    311.39407    -10383.37            0   -10352.497    1054.7457    10461.474 
    1610    312.29747   -10383.229            0   -10352.268    3521.2686    10454.039 
    1620    318.93203   -10383.778            0   -10352.158   -3514.2891    10489.789 
    1630    316.87098   -10383.625            0   -10352.209   -1766.4054    10482.283 
    1640    307.55187   -10382.858            0   -10352.367    4208.3107     10450.89 
    1650    301.49671    -10382.51            0   -10352.619   -421.64915    10472.611 
    1660     295.0023   -10382.094            0   -10352.846   -3392.0566    10491.946 
    1670    297.16682   -10382.586            0   -10353.124    1129.8952    10465.934 
    1680     310.0282   -10384.098            0   -10353.361    3057.5793    10453.256 
    1690    294.41447   -10382.877            0   -10353.688    -2156.566    10481.779 
    1700    300.28676   -10383.801            0    -10354.03   -2610.8004    10482.056 
    1710    297.43567   -10383.853            0   -10354.364    4199.4173    10449.446 
    1720    291.99708    -10383.67            0    -10354.72   -138.05663    10467.995 
    1730    283.43979   -10383.022            0   -10354.921   -3740.0888    10488.672 
    1740    291.80683   -10384.008            0   -10355.078    2197.5287    10461.076 
    1750    295.64411   -10384.498            0   -10355.187    2350.3893    10458.822 
    1760    297.20197   -10384.662            0   -10355.197   -4084.8317    10485.406 
    1770    295.98936   -10384.635            0    -10355.29    741.58646    10463.594 
    1780    297.70711   -10384.803            0   -10355.288     3740.593    10449.834 
    1790    282.15866   -10383.223            0   -10355.249   -3165.0497    10481.803 
    1800    292.39851   -10384.164            0   -10355.175   -1346.0131    10475.369 
    1810    300.14301   -10384.541            0   -10354.784    3848.5403    10452.173 
    1820    302.78485   -10384.334            0   -10354.315   -1651.9195    10475.729 
    1830    301.09127   -10383.663            0   -10353.812   -2368.3952    10481.275 
    1840    298.87205   -10382.933            0   -10353.302    3112.3872    10455.437 
    1850    303.39888   -10383.037            0   -10352.958     1111.666    10469.338 
    1860    294.66898   -10381.748            0   -10352.534   -4524.0355    10498.137 
    1870    295.61116   -10381.501            0   -10352.193    1022.8279    10469.432 
    1880     313.7566   -10382.998            0   -10351.891     4109.278    10452.279 
    1890    315.89648   -10382.933            0   -10351.615   -3624.4126    10486.441 
    1900    313.12136   -10382.578            0   -10351.534   -1194.2627    10479.598 
    1910    317.35847   -10382.975            0   -10351.511    3558.3338    10456.222 
    1920    321.82339   -10383.576            0   -10351.669   -863.50188    10474.619 
    1930    315.24301    -10383.36            0   -10352.106   -2150.9966    10484.141 
    1940    303.71957   -10382.631            0   -10352.519    1221.9612    10465.268 
    1950    288.85627   -10381.566            0   -10352.928    2239.8542    10464.684 
    1960    289.16157   -10381.912            0   -10353.244   -3443.4844    10489.524 
    1970    303.59717    -10383.49            0   -10353.391   -559.54795     10472.11 
    1980    300.23857   -10383.344            0   -10353.577    4171.7575    10449.067 
    1990    295.68157    -10383.05            0   -10353.735   -1327.9522    10477.402 
    2000    293.10082   -10382.857            0   -10353.799   -3607.8952    10489.271 
    2010    299.81909   -10383.672            0   -10353.947    2451.0765    10454.522 
    2020    301.13255   -10383.802            0   -10353.947    3314.5338    10452.412 
    2030    312.86114   -10385.107            0   -10354.089   -4566.3845    10488.648 
    2040    296.57336   -10383.704            0   -10354.301   -401.67875    10470.953 
    2050    288.16119   -10382.954            0   -10354.385    4612.6523    10448.241 
    2060     298.3051   -10384.171            0   -10354.597   -3004.2194     10480.54 
    2070     284.7831   -10382.855            0   -10354.621   -2090.0991    10478.924 
    2080    304.76417   -10384.834            0   -10354.619    3895.0522    10449.285 
    2090    303.02776   -10384.807            0   -10354.764   -232.81786    10467.293 
    2100    297.25658   -10384.284            0   -10354.813   -3365.1114    10483.082 
    2110    298.95493   -10384.706            0   -10355.067    1856.8723     10456.06 
    2120    297.79388   -10384.849            0   -10355.325    2614.2172    10453.522 
    2130    282.80506   -10383.533            0   -10355.495   -3459.1445    10483.526 
    2140    292.76799   -10384.799            0   -10355.773   -690.05962    10469.809 
    2150    282.35958   -10383.829            0   -10355.836    4185.0992    10449.908 
    2160    271.59079   -10382.758            0   -10355.832   -2152.7649     10481.08 
    2170    285.43015   -10383.968            0   -10355.669   -3244.5529    10483.569 
    2180    298.22196   -10384.834            0   -10355.268    3894.2587    10446.917 
    2190    297.94751   -10384.434            0   -10354.895    1541.6918    10461.251 
    2200    297.64061   -10383.925            0   -10354.417   -4545.5969     10493.71 
    2210    308.97539   -10384.688            0   -10354.055    84.740078    10468.048 
    2220    304.05301   -10383.897            0   -10353.752    4417.3552    10445.723 
    2230    297.92141   -10383.049            0   -10353.512   -1505.1216    10478.238 
    2240    302.15321   -10383.294            0   -10353.338   -4028.9918    10489.705 
    2250     294.3073   -10382.346            0   -10353.168    3390.9881      10452.6 
    2260    295.29378    -10382.25            0   -10352.973    2868.6582    10457.751 
    2270    300.61686    -10382.62            0   -10352.816   -4990.8896    10495.552 
    2280    311.06129   -10383.504            0   -10352.664   -592.97789     10471.74 
    2290    314.55253   -10383.686            0     -10352.5    5231.2788    10443.522 
    2300    313.06564   -10383.591            0   -10352.553    -1871.137    10480.803 
    2310    300.59321   -10382.395            0   -10352.593   -4125.8592    10492.672 
    2320    303.75231   -10382.928            0   -10352.813    3684.2589    10451.983 
    2330     311.2511   -10383.903            0   -10353.045    2076.3508    10457.448 
    2340     289.1272   -10381.945            0   -10353.281   -3933.0399    10491.736 
    2350    288.33047    -10382.18            0   -10353.594   -561.98136    10476.451 
    2360    313.71203   -10384.963            0    -10353.86     3063.211     10451.14 
    2370    296.22679   -10383.728            0   -10354.359    179.14113    10468.113 
    2380    296.01612   -10384.248            0     -10354.9   -3556.8549    10485.959 
    2390    294.32546    -10384.66            0   -10355.479    1469.2312    10459.601 
    2400    286.59713   -10384.398            0   -10355.985    2809.5676    10451.514 
    2410    288.73826   -10384.917            0    -10356.29   -2653.8089    10478.524 
    2420    292.35883   -10385.422            0   -10356.437   -1815.9453    10471.715 
    2430    285.46962   -10384.772            0    -10356.47    4018.7185    10444.879 
    2440    278.18557   -10383.996            0   -10356.416    86.270149    10468.668 
    2450    281.60223   -10384.139            0    -10356.22   -4818.3441    10489.795 
    2460    287.38296   -10384.493            0   -10356.002    3281.9487    10453.013 
    2470    299.18575   -10385.378            0   -10355.716    2047.0477    10455.029 
    2480    288.44285   -10384.021            0   -10355.424   -3805.8468    10485.584 
    2490    292.93284   -10384.199            0   -10355.156    53.231008    10467.368 
    2500    293.04145   -10383.915            0   -10354.862    3757.8613    10450.163 
    2510    286.96086   -10383.053            0   -10354.603   -1961.3838    10480.471 
    2520    298.65601   -10383.883            0   -10354.274   -3215.4647    10484.747 
    2530    294.90637   -10383.226            0   -10353.989     4220.027    10450.693 
    2540    308.74349   -10384.377            0   -10353.767     223.5764    10466.457 
    2550    300.44771    -10383.33            0   -10353.543   -3292.4335    10488.501 
    2560    306.00918   -10383.752            0   -10353.413    1193.2259    10469.002 
    2570     307.8922   -10383.811            0   -10353.286    1245.8384    10462.446 
    2580    316.37293   -10384.656            0    -10353.29   -796.05932    10472.497 
    2590    301.91373   -10383.329            0   -10353.397    -262.0237    10473.964 
    2600    295.60802   -10382.818            0    -10353.51    81.232398    10470.154 
    2610    297.10021   -10383.091            0   -10353.636    888.66139    10468.199 
    2620    290.90921   -10382.561            0   -10353.719   -1133.3279    10476.645 
    2630    289.39836   -10382.423            0   -10353.732   -149.48185    10472.161 
    2640    298.60966   -10383.282            0   -10353.677    1486.1083    10465.788 
    2650    295.49026   -10382.855            0    -10353.56   -880.55982     10477.33 
    2660    290.92663   -10382.221            0   -10353.378    -821.2453    10478.092 
    2670    315.05121   -10384.309            0   -10353.074    1015.5315    10466.631 
    2680    302.13386   -10382.652            0   -10352.698    711.05951    10469.845 
    2690    314.57608   -10383.472            0   -10352.284   -1792.2163    10481.137 
    2700    319.25807   -10383.551            0   -10351.899    132.67507      10470.6 
    2710    305.20847   -10381.845            0   -10351.586    2348.5344    10463.353 
    2720    311.33031   -10382.232            0   -10351.366   -1823.5358    10483.003 
    2730    315.25118   -10382.489            0   -10351.234   -1431.6339    10480.853 
    2740    315.00871   -10382.371            0    -10351.14    2602.3158    10461.516 
    2750    296.65131   -10380.601            0    -10351.19    640.27354    10474.284 
    2760    329.45534   -10384.019            0   -10351.356   -3915.9727     10490.97 
    2770    305.98284   -10382.013            0   -10351.677    2378.6774    10464.108 
    2780      293.193   -10381.171            0   -10352.103    2357.9489     10464.06 
    2790    305.26697   -10382.859            0   -10352.594   -3976.4992    10493.552 
    2800    307.97069    -10383.66            0   -10353.127   -562.83723    10473.108 
    2810    304.67462   -10383.787            0   -10353.581    5553.3649    10444.492 
    2820    294.45829   -10383.243            0    -10354.05   -2085.2131    10484.199 
    2830    298.25637    -10383.85            0    -10354.28   -5693.8503    10499.665 
    2840    306.06797    -10384.81            0   -10354.465    5076.7019    10442.395 
    2850    289.62032   -10383.325            0   -10354.612    4600.4477    10448.206 
    2860     284.5195   -10382.767            0   -10354.559    -8282.241    10512.754 
    2870    283.85549   -10382.793            0   -10354.651   -577.10968    10473.684 
    2880    308.25185    -10384.95            0   -10354.389    8821.6287    10422.203 
    2890    295.39172   -10383.655            0   -10354.369   -2922.1033    10484.387 
    2900    298.16005   -10383.714            0   -10354.153   -8015.8693    10511.506 
    2910    303.82957   -10384.133            0    -10354.01    6727.8197    10436.343 
    2920    294.93036   -10383.194            0   -10353.954    5677.0697    10444.835 
    2930    289.47925   -10382.405            0   -10353.705   -9908.7465    10523.729 
    2940    308.42855   -10384.175            0   -10353.596   -1574.2539    10478.361 
    2950    289.27095   -10381.835            0   -10353.156    11417.366    10417.087 
    2960    299.61916   -10382.644            0   -10352.939   -4475.1636    10493.121 
    2970     303.3827   -10382.616            0   -10352.537   -8114.2423    10513.205 
    2980    319.24646   -10383.885            0   -10352.234    8445.6683    10432.455 
    2990    314.41924   -10383.202            0    -10352.03    2603.2753    10456.562 
    3000     306.4936    -10382.24            0   -10351.854   -8446.6258    10512.633 
    3010    300.89823   -10381.712            0   -10351.881    2554.4417    10463.384 
    3020    303.85772   -10381.933            0   -10351.808    5616.4742    10445.971 
    3030    306.77463   -10382.274            0   -10351.859   -4922.5943    10498.158 
    3040    316.28071   -10383.294            0   -10351.937   -2944.7381    10487.726 
    3050    308.58263   -10382.755            0   -10352.161    5905.1216    10444.238 
    3060    316.79772    -10384.15            0   -10352.742   -1159.6634    10471.806 
    3070    300.72876    -10383.35            0   -10353.535   -3551.4593    10485.547 
    3080     288.8651   -10382.914            0   -10354.275    3334.1591    10456.098 
    3090     301.9781    -10384.67            0   -10354.731     235.2642    10465.825 
    3100    289.73654   -10383.735            0   -10355.009   -2607.0652    10481.011 
    3110    287.82689   -10383.711            0   -10355.176    1095.5423    10464.033 
    3120    283.18521   -10383.285            0   -10355.209    1975.0783    10461.754 
    3130    278.47398   -10382.756            0   -10355.147   -2489.9462    10481.706 
    3140    299.95999   -10384.707            0   -10354.969    -617.5772    10469.435 
    3150    298.65264   -10384.324            0   -10354.715    3451.8049    10452.084 
    3160    303.40079   -10384.563            0   -10354.483   -1998.9441    10476.968 
    3170    297.74714   -10383.707            0   -10354.188   -2080.9889    10478.982 
    3180    299.67536   -10383.668            0   -10353.957    3198.0094    10453.299 
    3190    304.39755   -10383.921            0   -10353.742    34.184773     10466.72 
    3200    307.33568   -10383.974            0   -10353.504    -2612.298    10481.837 
    3210    294.33731   -10382.512            0   -10353.331    1495.9519    10465.554 
    3220    302.25389   -10383.063            0   -10353.097    300.22196    10465.692 
    3230    300.64077   -10382.686            0    -10352.88   -350.55167    10471.559 
    3240    311.83411   -10383.615            0   -10352.699   -467.78624    10471.962 
    3250      308.121    -10383.07            0   -10352.522    350.52878    10467.743 
    3260    310.86337   -10383.277            0   -10352.458    188.35226    10466.221 
    3270    301.91048   -10382.412            0    -10352.48    375.25172    10468.193 
    3280    291.64508   -10381.433            0   -10352.518    176.56833    10476.479 
    3290    304.64153   -10382.768            0   -10352.565   -2302.0462    10482.104 
    3300    308.51613   -10383.207            0    -10352.62    1653.5295     10460.94 
    3310     299.7375   -10382.469            0   -10352.752    1943.7333    10462.455 
    3320    308.05168   -10383.531            0    -10352.99   -3370.7673    10485.596 
    3330    300.65541    -10383.15            0   -10353.342    572.79375    10469.205 
    3340    303.31532   -10383.875            0   -10353.803     2421.752    10457.924 
    3350    296.94238   -10383.748            0   -10354.308   -1844.9014    10476.303 
    3360    292.76609   -10383.797            0   -10354.772   -1210.9084    10472.532 
    3370     288.1906   -10383.716            0   -10355.144    3097.1788    10454.238 
    3380    290.03796   -10384.103            0   -10355.348   -1166.6438    10471.653 
    3390    287.46124   -10383.969            0   -10355.469   -2060.8617    10477.134 
    3400     289.8845   -10384.231            0   -10355.491    2223.7797    10455.685 
    3410    299.38942   -10385.097            0   -10355.415    828.85715    10462.138 
    3420    290.58135   -10384.141            0   -10355.332   -2512.8845    10480.864 
    3430    294.97173   -10384.428            0   -10355.184    276.91214    10466.586 
    3440    296.63034   -10384.411            0   -10355.002    2379.5876     10454.76 
    3450     297.6151    -10384.28            0   -10354.774    -1242.861    10475.032 
    3460    282.65837   -10382.406            0   -10354.383   -1996.8341    10481.219 
    3470    297.89473   -10383.559            0   -10354.025     1742.406     10457.95 
    3480    309.85756   -10384.313            0   -10353.593     2034.517    10457.116 
    3490    300.09122   -10382.948            0   -10353.196   -2810.7646    10484.528 
    3500    307.00276   -10383.402            0   -10352.965   -1136.4264    10475.625 
    3510    303.83936   -10382.844            0   -10352.721    3704.3161    10450.578 
    3520    314.29058   -10383.849            0   -10352.689   -668.26819    10470.846 
    3530    300.14407    -10382.43            0   -10352.673   -2616.9131    10487.672 
    3540    299.48175    -10382.34            0   -10352.648    959.98179    10469.008 
    3550    302.52564   -10382.728            0   -10352.735    1378.9725    10458.869 
    3560    304.81407   -10382.925            0   -10352.704    242.32435    10470.729 
    3570     303.3827   -10382.831            0   -10352.753   -2548.2808    10483.745 
    3580    302.05335   -10382.848            0   -10352.902    559.29702    10464.085 
    3590    300.97413   -10382.719            0    -10352.88    3636.2113    10452.972 
    3600     301.7207   -10382.973            0    -10353.06   -3425.8302    10484.646 
    3610    294.05242   -10382.239            0   -10353.086   -1743.3464    10477.297 
    3620    298.09963   -10382.576            0   -10353.022    4908.0811    10447.611 
    3630    311.55866   -10384.122            0   -10353.233   -1233.0682    10475.612 
    3640    314.67635   -10384.399            0   -10353.201   -4762.2992    10490.123 
    3650    297.02773   -10382.883            0   -10353.434    4824.4527     10447.94 
    3660    296.35129   -10383.104            0   -10353.723    1476.7871    10462.377 
    3670    298.01584   -10383.288            0   -10353.742   -5777.3487    10494.809 
    3680    292.56319    -10383.04            0   -10354.035    2728.3995    10458.789 
    3690    299.40126   -10383.788            0   -10354.105    2513.2154    10452.725 
    3700    303.33622   -10384.265            0   -10354.191   -3327.0346    10479.792 
    3710    306.40736   -10384.912            0   -10354.534   -216.74813    10466.815 
    3720    297.84885   -10384.351            0   -10354.821    3479.7693    10451.565 
    3730    294.28615   -10384.696            0    -10355.52   -2352.1797    10476.276 
    3740    275.43769   -10383.528            0    -10356.22   -1596.1078    10473.563 
    3750    280.53797   -10384.427            0   -10356.613    3242.6138     10451.84 
    3760    281.31294   -10384.864            0   -10356.974   -981.83837    10468.658 
    3770     280.7906   -10384.821            0   -10356.982   -2200.5192    10474.407 
    3780    286.86748   -10385.378            0   -10356.937    2188.1615    10452.704 
    3790    292.93852   -10385.909            0   -10356.867    974.65783    10457.958 
    3800    280.01251   -10384.334            0   -10356.573   -2254.7163    10476.958 
    3810     280.5656   -10384.137            0   -10356.321   -276.16802    10466.486 
    3820    294.17652   -10385.072            0   -10355.907    2635.6013    10453.072 
    3830    293.71832   -10384.647            0   -10355.527   -1088.4826    10472.709 
    3840    295.88241    -10384.58            0   -10355.245   -2613.6809     10477.52 
    3850    293.08585   -10383.969            0   -10354.912    3136.6989    10453.273 
    3860    285.82755   -10383.039            0   -10354.701    746.19855    10467.118 
    3870    297.90107   -10383.987            0   -10354.453   -4117.8461    10487.836 
    3880    311.82826   -10385.139            0   -10354.223    1339.3841    10458.563 
    3890    294.23539   -10383.254            0   -10354.083    3777.4171    10450.062 
    3900    296.08215    -10383.28            0   -10353.926   -3460.1795    10485.971 
    3910    301.65875   -10383.702            0   -10353.795   -1641.5315    10478.044 
    3920    285.85784   -10381.964            0   -10353.624    3972.1096    10451.976 
    3930    300.83007   -10383.232            0   -10353.407   -831.14143    10471.813 
    3940     314.4983   -10384.404            0   -10353.224   -2471.3747    10483.466 
    3950    298.43591   -10382.657            0   -10353.069    942.83273     10463.15 
    3960    307.14718   -10383.393            0   -10352.941    2692.2386    10455.651 
    3970    309.56769   -10383.606            0   -10352.915   -2505.1029    10479.991 
    3980     307.4911     -10383.4            0   -10352.915   -1055.8894    10474.242 
    3990    301.42287   -10382.858            0   -10352.975    3062.6636    10456.364 
    4000    289.11291   -10381.733            0   -10353.069   -920.50744     10475.96 
    4010    307.58272   -10383.621            0   -10353.126   -2653.9149    10482.584 
    4020    315.64896   -10384.625            0   -10353.331    2025.0177    10455.379 
    4030    302.24134   -10383.602            0   -10353.637    2247.2432    10457.682 
    4040    295.16847   -10383.339            0   -10354.075   -3853.5445    10485.111 
    4050    287.60861   -10383.151            0   -10354.637    1059.5144     10467.03 
    4060    280.73215   -10382.824            0   -10354.991    1628.6207    10460.405 
    4070     277.5889   -10382.755            0   -10355.234   -1954.6516    10474.302 
    4080    294.05188   -10384.487            0   -10355.334    113.67692    10465.001 
    4090    309.14468   -10386.016            0   -10355.367    1463.6268    10455.394 
    4100    306.17991   -10385.842            0   -10355.487   -76.121281    10467.305 
    4110    291.97382   -10384.502            0   -10355.555    -2376.966        10478 
    4120    291.66781   -10384.578            0   -10355.662    1143.9097    10457.359 
    4130    287.85011    -10384.28            0   -10355.742    2835.6569    10451.599 
    4140    282.23342   -10383.647            0   -10355.666   -2571.2552    10481.482 
    4150    289.50674   -10384.141            0   -10355.438   -2561.6279    10479.621 
    4160    286.55123   -10383.379            0   -10354.969    4361.9773    10446.471 
    4170    300.16149   -10384.132            0   -10354.373    356.87059    10464.744 
    4180    310.70914   -10384.552            0   -10353.747   -4501.5834    10487.818 
    4190    301.04345    -10383.09            0   -10353.244     2961.385    10458.766 
    4200    310.45365   -10383.708            0   -10352.929    1693.6112    10463.604 
    4210    309.70571   -10383.453            0   -10352.748   -4023.7722    10490.171 
    4220    293.58526   -10381.771            0   -10352.665    831.11114    10467.433 
    4230    301.92047   -10382.578            0   -10352.645     3886.321    10453.651 
    4240    304.98771   -10382.827            0    -10352.59   -3069.8717    10488.228 
    4250    292.21841   -10381.496            0   -10352.525   -2408.6796    10487.192 
    4260    309.90254   -10383.218            0   -10352.493    3705.5867    10452.966 
    4270    312.16734   -10383.436            0   -10352.487    975.70444    10464.479 
    4280    302.57849   -10382.575            0   -10352.577   -3764.5327    10491.158 
    4290    300.44239   -10382.509            0   -10352.722    810.48187    10470.162 
    4300    308.29993   -10383.404            0   -10352.838    2845.9363    10456.856 
    4310    300.44952   -10382.901            0   -10353.114   -2014.6687    10481.431 
    4320     307.4759    -10383.85            0   -10353.366   -2019.5297    10479.775 
    4330    295.66411   -10383.008            0   -10353.695     3358.673    10454.717 
    4340    308.10737   -10384.689            0   -10354.143   -307.37723    10468.581 
    4350    295.79984   -10383.859            0   -10354.533   -2523.8828    10481.578 
    4360    290.01037   -10383.737            0   -10354.985     1086.827    10462.111 
    4370    290.17858   -10384.049            0    -10355.28    2232.6097    10455.654 
    4380    291.83425   -10384.417            0   -10355.484   -1919.5342    10476.009 
    4390    285.25049   -10383.895            0   -10355.614   -1274.7078    10473.565 
    4400    290.18921   -10384.336            0   -10355.566    2153.1459    10454.289 
    4410    295.71307    -10384.85            0   -10355.532    774.76657    10462.632 
    4420     293.1028   -10384.474            0   -10355.415   -2768.2319    10481.398 
    4430    288.58014   -10383.889            0   -10355.279    510.18147    10465.665 
    4440    294.78488   -10384.404            0   -10355.179    2501.1787    10454.711 
    4450    296.40559   -10384.392            0   -10355.006    -1254.558    10476.675 
    4460     291.3426   -10383.731            0   -10354.847   -2603.5257    10483.233 
    4470    296.06572   -10384.049            0   -10354.696    2164.1555     10457.67 
    4480    301.90174   -10384.431            0     -10354.5     1661.665    10457.526 
    4490    295.80216   -10383.758            0   -10354.432   -1832.8208    10481.004 
    4500     302.1617   -10384.227            0    -10354.27   -2373.7189    10479.154 
    4510    295.99405   -10383.452            0   -10354.106    3629.0984    10449.537 
    4520    298.57255   -10383.669            0   -10354.067    1356.2877    10466.019 
    4530    292.43169   -10382.827            0   -10353.835   -5291.9862    10497.014 
    4540    294.14714   -10382.879            0   -10353.716    1734.5476     10463.57 
    4550    286.94271   -10381.884            0   -10353.436    4589.3904    10452.328 
    4560    294.25069   -10382.268            0   -10353.096   -4165.6317    10496.063 
    4570    315.63239   -10384.158            0   -10352.865   -3093.5983    10486.277 
    4580    309.54667   -10383.229            0   -10352.539    6353.1006    10441.738 
    4590     307.9095   -10383.005            0   -10352.478   -490.37936    10473.777 
    4600    315.31829   -10383.712            0    -10352.45   -5806.9493    10500.207 
    4610     301.2728    -10382.32            0   -10352.452     3802.979    10456.952 
    4620     323.8375    -10384.71            0   -10352.604    2359.1229    10457.028 
    4630    299.42589   -10382.471            0   -10352.786   -4027.6978    10489.559 
    4640    295.71234   -10382.307            0   -10352.989    200.73429    10472.576 
    4650    298.99797   -10382.852            0   -10353.209     3276.034    10456.131 
    4660    306.00165    -10383.63            0   -10353.292   -2169.0425    10480.441 
    4670    293.21734   -10382.464            0   -10353.394   -1452.3892    10481.054 
    4680    310.73367   -10384.281            0   -10353.474    2010.8561    10459.825 
    4690    304.32934   -10383.705            0   -10353.533    993.85863    10465.251 
    4700    304.38623    -10383.84            0   -10353.662   -2588.6549    10483.369 
    4710    299.87119   -10383.459            0   -10353.729    187.77302    10468.564 
    4720    290.58693   -10382.582            0   -10353.772    3084.2229    10458.158 
    4730    287.68922   -10382.295            0   -10353.773    -2230.568    10485.526 
    4740    293.06753   -10382.693            0   -10353.638   -2565.5684    10483.643 
    4750    295.92287   -10382.828            0   -10353.489    4365.3196    10452.413 
    4760    308.40131     -10383.9            0   -10353.324   -303.58222    10473.447 
    4770    309.61847   -10383.876            0   -10353.179    -4504.792    10490.213 
    4780    313.25543   -10384.233            0   -10353.176    3403.0102    10452.905 
    4790    300.33752   -10382.989            0   -10353.213    3063.7237    10458.196 
    4800    298.85282   -10382.941            0   -10353.312   -5656.0431    10499.021 
    4810    301.90002   -10383.385            0   -10353.454   -461.30374    10469.692 
    4820    298.70893    -10383.09            0   -10353.476    6500.2241    10437.926 
    4830    298.27803    -10383.24            0   -10353.668   -2990.4542    10485.166 
    4840    298.32179    -10383.34            0   -10353.763   -4646.9476    10495.082 
    4850    290.46261   -10382.718            0   -10353.921     5214.442    10447.655 
    4860    303.95006   -10384.236            0   -10354.102    768.17148    10461.665 
    4870    300.61621   -10384.093            0   -10354.289   -3669.7283     10489.38 
    4880    295.61433   -10383.944            0   -10354.636    280.86319    10468.691 
    4890    295.21181   -10384.217            0   -10354.949    3104.2911    10452.016 
    4900    289.96796   -10384.067            0   -10355.319   -1067.0448     10475.68 
    4910    288.13484   -10384.193            0   -10355.627    -3326.007     10484.29 
    4920    288.00207   -10384.392            0   -10355.838    2964.4828    10452.286 
    4930    285.84591   -10384.324            0   -10355.984    2031.3154    10458.467 
    4940    287.42198   -10384.537            0   -10356.041   -4025.9249    10487.203 
    4950    296.99274   -10385.521            0   -10356.077    349.09865    10464.991 
    4960    291.67597   -10384.907            0    -10355.99    3533.8873    10449.249 
    4970    285.35167   -10384.104            0   -10355.814   -1810.8683    10478.393 
    4980    292.28932   -10384.497            0   -10355.518   -3262.2684    10482.836 
    4990    301.62226   -10384.972            0   -10355.069    3907.4383    10448.047 
    5000    286.36556   -10382.932            0   -10354.541    1642.0098    10463.174 
    5010    290.59086   -10382.749            0   -10353.939   -5380.2622    10496.321 
    5020    299.18839   -10383.113            0   -10353.451    2228.0185    10464.185 
    5030    299.46098    -10382.73            0   -10353.041    2841.5381    10457.148 
    5040     303.0036   -10382.826            0   -10352.786   -3337.4961    10486.589 
    5050    304.56625   -10382.823            0   -10352.628   -235.10976    10475.535 
    5060    305.90209   -10382.844            0   -10352.516    2477.7019    10460.584 
    5070    316.73541   -10383.894            0   -10352.492   -1121.6098    10476.216 
    5080    308.02363   -10383.104            0   -10352.565   -1492.6033    10479.216 
    5090    303.10779   -10382.765            0   -10352.715    1682.8609    10463.404 
    5100    304.18747   -10383.057            0   -10352.899    676.55548    10467.149 
    5110    304.61225   -10383.308            0   -10353.108   -1928.0772    10480.499 
    5120    306.61729   -10383.789            0    -10353.39   -27.849891    10469.054 
    5130     300.0161   -10383.415            0   -10353.671    2660.1614    10458.336 
    5140    302.90461   -10384.038            0   -10354.008   -1696.3723    10480.392 
    5150    299.78038   -10384.033            0   -10354.312   -2669.8217    10480.595 
    5160    291.73626   -10383.471            0   -10354.548    4198.0639    10450.977 
    5170     291.9031   -10383.724            0   -10354.784   -48.014379    10471.496 
    5180    290.80023   -10383.718            0   -10354.888   -4641.5117    10491.337 
    5190    293.27678   -10384.017            0   -10354.941    3142.3704    10455.831 
    5200    281.22663   -10382.773            0   -10354.892    2554.5986    10457.789 
    5210    290.89048   -10383.568            0   -10354.729    -4706.435    10490.628 
    5220    297.36585   -10384.044            0   -10354.563    706.27796    10465.985 
    5230    296.89418   -10383.665            0    -10354.23    4543.8883    10449.891 
    5240    307.11684    -10384.31            0   -10353.861   -4507.1794    10487.962 
    5250    297.96693   -10382.997            0   -10353.455   -367.43601    10475.491 
    5260    310.77504   -10383.787            0   -10352.976     3823.224    10453.625 
    5270    306.33171   -10382.894            0   -10352.523   -1711.3608    10480.067 
    5280     308.5963   -10382.696            0   -10352.101   -2432.9725    10486.743 
    5290    315.66603   -10383.047            0   -10351.751    2315.5172    10461.608 
    5300    302.87606   -10381.489            0   -10351.461    1677.6088    10467.405 
    5310     309.0119   -10381.849            0   -10351.212   -3750.8654    10493.373 
    5320    324.50386   -10383.304            0   -10351.132    251.19742    10472.035 
    5330     314.4318   -10382.301            0   -10351.127    4069.3153    10452.738 
    5340    300.54989   -10381.135            0   -10351.338   -1553.5098    10486.838 
    5350    298.77504   -10381.162            0   -10351.541   -4430.6369    10501.362 
    5360     305.5657   -10382.224            0   -10351.929    3351.0689    10457.487 
    5370    301.30078   -10382.584            0   -10352.712    3873.7127    10455.224 
    5380    307.93518   -10384.248            0   -10353.718   -6176.5473    10500.818 
    5390    294.69896   -10383.801            0   -10354.584   -181.64484    10472.837 
    5400    308.54149   -10385.578            0   -10354.988    5632.5273    10439.199 
    5410    286.78406   -10383.707            0   -10355.275   -2263.0887    10476.845 
    5420    284.33229   -10383.581            0   -10355.392   -3568.2595    10489.037 
    5430    291.21643   -10384.297            0   -10355.425    3113.6902    10453.502 
    5440    294.14339   -10384.532            0    -10355.37    2038.1036    10455.707 
    5450     292.1794   -10384.223            0   -10355.255   -3379.2916    10486.675 
    5460    290.64721   -10383.887            0   -10355.072   -1260.8679    10475.355 
    5470    298.18988   -10384.339            0   -10354.775    4144.7622    10447.286 
    5480    295.82091   -10383.891            0   -10354.563   -150.40003    10471.061 
    5490    302.74257   -10384.248            0   -10354.234   -4730.2986     10492.34 
    5500    290.72419   -10382.744            0   -10353.921    3071.7865    10457.115 
    5510    302.44718   -10383.609            0   -10353.624    2685.6934      10457.1 
    5520    298.61839   -10382.877            0   -10353.272   -4245.8623    10492.002 
    5530    292.46511   -10381.962            0   -10352.967   -466.06978    10475.512 
    5540    309.99581   -10383.351            0   -10352.617    3914.7294    10450.791 
    5550    314.21279   -10383.529            0   -10352.377   -1072.1831    10475.272 
    5560    304.72415   -10382.439            0   -10352.228   -2708.7636    10488.437 
    5570    314.87668   -10383.391            0   -10352.173     1177.656    10464.246 
    5580    313.65998   -10383.302            0   -10352.205    2410.4019    10456.021 
    5590    300.09108   -10382.107            0   -10352.356    -1426.889      10480.6 
    5600    296.94569   -10381.893            0   -10352.453   -1955.1005    10487.406 
    5610    305.29605    -10382.89            0   -10352.622    1100.5673     10466.63 
    5620    303.78404   -10382.942            0   -10352.824    1971.9866    10460.871 
    5630    307.89523   -10383.621            0   -10353.095   -1211.8889    10480.609 
    5640    309.36808   -10384.206            0   -10353.535   -2251.5264     10482.97 
    5650    297.61455   -10383.482            0   -10353.976    1998.8371    10458.068 
    5660    287.38585   -10382.937            0   -10354.445    2123.9623    10459.005 
    5670    284.58211   -10383.008            0   -10354.794   -2737.5288    10485.619 
    5680    285.08083   -10383.206            0   -10354.942   -1382.7315    10476.644 
    5690    294.70076   -10384.223            0   -10355.006    3568.9875    10451.914 
    5700    294.35343   -10384.169            0   -10354.986   -656.57838    10472.448 
    5710    295.32273   -10384.172            0   -10354.893   -3076.7831    10484.488 
    5720    299.74543    -10384.57            0   -10354.853    2263.6345    10459.102 
    5730    300.76942   -10384.553            0   -10354.734    1157.2251      10461.5 
    5740    292.00138   -10383.635            0   -10354.685   -1918.0746    10479.496 
    5750    309.44961   -10385.323            0   -10354.643   -985.54314    10470.144 
    5760    286.69673   -10382.962            0   -10354.538    3439.4843    10454.185 
    5770     294.5402   -10383.689            0   -10354.488   -1484.7025    10477.393 
    5780    297.37171   -10383.847            0   -10354.365   -2314.6574    10481.898 
    5790    296.81575   -10383.637            0    -10354.21    2294.9715    10459.656 
    5800    305.10984   -10384.367            0   -10354.117    623.77765    10465.098 
    5810    300.16394   -10383.785            0   -10354.026   -1364.7568    10479.494 
    5820    284.86699   -10382.223            0   -10353.981   -26.135664    10476.777 
    5830    298.26742   -10383.447            0   -10353.876    193.67621    10470.107 
    5840    299.21731   -10383.409            0   -10353.743    716.69981    10468.819 
    5850    302.93981   -10383.677            0   -10353.642   -1271.6296     10475.95 
    5860    295.88848   -10382.841            0   -10353.506    164.92514    10469.756 
    5870    307.94216   -10383.964            0   -10353.434    1402.8372    10464.665 
    5880    296.35436   -10382.807            0   -10353.426   -700.74377    10476.418 
    5890    305.42832   -10383.674            0   -10353.393    -1444.871    10477.898 
    5900    289.83861   -10382.134            0   -10353.399    1880.7186    10464.172 
    5910    314.26369   -10384.515            0   -10353.358   -535.37968    10469.782 
    5920    296.59911   -10382.774            0   -10353.368   -90.271175    10473.096 
    5930    298.67842   -10383.062            0    -10353.45     325.6511    10471.949 
    5940     309.1797   -10384.145            0   -10353.492   -621.68541    10473.525 
    5950    297.57857   -10383.098            0   -10353.595    147.28832    10469.663 
    5960    291.35439   -10382.561            0   -10353.676    948.35939    10467.101 
    5970    301.76935   -10383.651            0   -10353.733   -615.46323    10474.841 
    5980    298.96948   -10383.476            0   -10353.836   -518.51833    10475.771 
    5990    297.88062   -10383.397            0   -10353.865    110.24096    10470.169 
    6000    296.23481   -10383.312            0   -10353.942    879.39774     10467.83 
    6010    307.39563   -10384.537            0   -10354.061   -989.14031    10474.846 
    6020    301.19901   -10384.114            0   -10354.253   -345.79026    10469.404 
    6030    296.29335   -10383.981            0   -10354.605    2043.1526    10462.052 
    6040    287.19916    -10383.43            0   -10354.956    -1666.761    10477.449 
    6050    288.05756    -10383.83            0   -10355.271   -840.97506    10472.078 
    6060    279.78835   -10383.216            0   -10355.477    2236.4913    10457.409 
    6070    293.86897    -10384.72            0   -10355.585    16.724444    10469.132 
    6080    303.11264   -10385.751            0   -10355.699   -2665.0154    10477.977 
    6090    293.79216   -10384.885            0   -10355.758    1490.4116    10457.886 
    6100    290.61136   -10384.548            0   -10355.736    1547.8392      10456.4 
    6110    290.12789   -10384.467            0   -10355.703   -1332.0169    10474.938 
    6120     295.1482   -10384.844            0   -10355.582   -1429.9519    10474.588 
    6130    284.01935   -10383.519            0   -10355.361    1713.7855    10458.194 
    6140    290.63516   -10383.849            0   -10355.035    1015.5834    10463.889 
    6150    285.79726   -10382.915            0   -10354.581   -2540.1338    10480.821 
    6160    299.93014   -10383.826            0    -10354.09    316.17567    10466.553 
    6170    299.38643   -10383.288            0   -10353.606    2388.1005    10458.063 
    6180    298.39852   -10382.839            0   -10353.255   -1335.4513    10478.071 
    6190    318.75785   -10384.634            0   -10353.031    -1841.055    10479.563 
    6200    301.70694   -10382.785            0   -10352.873    2063.4102     10460.78 
    6210    300.31669   -10382.599            0   -10352.825    1011.3885    10467.116 
    6220    306.48166   -10383.199            0   -10352.813   -2046.8475    10485.055 
    6230    309.73472   -10383.543            0   -10352.835   -1098.5213    10475.722 
    6240    301.75514   -10382.807            0   -10352.891    2748.3995    10454.657 
    6250    305.47738   -10383.306            0    -10353.02    548.54526    10468.439 
    6260    303.19766   -10383.224            0   -10353.164   -3623.0432    10487.918 
    6270    300.09014   -10383.119            0   -10353.367    1395.8814     10462.96 
    6280    296.78871   -10382.986            0   -10353.561    3306.5589    10456.203 
    6290    301.97904   -10383.721            0   -10353.782   -3801.6406     10489.29 
    6300     291.8489   -10382.962            0   -10354.027    -1128.113    10475.115 
    6310    303.51845   -10384.356            0   -10354.265    4419.7492    10446.594 
    6320    292.93045   -10383.622            0    -10354.58    -1266.748    10474.971 
    6330    290.73445   -10383.645            0    -10354.82   -3719.0685     10486.93 
    6340    294.42374   -10384.348            0   -10355.158    3374.7557    10452.278 
    6350    293.19507   -10384.584            0   -10355.516    1310.7397    10458.592 
    6360    283.75636   -10383.956            0   -10355.824   -2821.6502    10484.851 
    6370    293.90645   -10385.273            0   -10356.134   -1250.0391    10473.094 
    6380    286.11463   -10384.706            0    -10356.34    3294.2682    10448.577 
    6390    287.86663    -10385.12            0    -10356.58   -119.90018    10463.233 
    6400    282.58336   -10384.814            0   -10356.798    -2137.202    10476.733 
    6410    292.11535   -10385.906            0   -10356.945    281.63248    10461.214 
    6420    281.92865   -10384.985            0   -10357.034     2288.235    10451.582 
    6430    277.97617   -10384.566            0   -10357.007   -832.41834    10471.559 
    6440    283.33664   -10384.873            0   -10356.783   -2702.1323    10478.087 
    6450    284.05267   -10384.526            0   -10356.364    2892.4823    10453.188 
    6460    289.66955   -10384.448            0    -10355.73     818.4971    10462.353 
    6470    287.68776   -10383.606            0   -10355.084   -2670.4175     10482.86 
    6480    300.73847   -10384.366            0    -10354.55    126.22483    10469.286 
    6490    299.19356    -10383.78            0   -10354.117    2365.3959    10456.869 
    6500    304.23527   -10384.024            0   -10353.861   -1247.9551    10474.674 
    6510    297.70868   -10383.145            0   -10353.629   -1532.4088    10478.189 
    6520    294.07676   -10382.585            0    -10353.43    2321.3224    10462.806 
    6530    304.65259   -10383.459            0   -10353.255   -1019.4996    10472.035 
    6540    298.64433    -10382.67            0   -10353.062    -194.5469    10472.834 
    6550    309.74421   -10383.644            0   -10352.935    539.61862    10468.522 
    6560    311.35862   -10383.718            0    -10352.85    -177.6975     10472.84 
    6570    295.04564    -10382.03            0   -10352.779    -777.5173    10475.086 
    6580    300.04252   -10382.517            0    -10352.77    535.50337    10467.904 
    6590    305.76431   -10383.005            0    -10352.69    660.32644    10466.316 
    6600    310.83188   -10383.494            0   -10352.677     -268.034    10474.994 
    6610    305.86219   -10383.078            0   -10352.755   -1544.9308    10480.772 
    6620    306.00702   -10383.134            0   -10352.796    645.42935    10466.507 
    6630    289.57589   -10381.713            0   -10353.003    2450.9554    10461.366 
    6640    307.86675   -10383.755            0   -10353.233   -3104.7773    10481.755 
    6650    294.43503   -10382.596            0   -10353.405    684.21625    10469.435 
    6660     291.8479   -10382.638            0   -10353.704    2270.2082    10463.579 
    6670    309.70731   -10384.637            0   -10353.932   -2772.3938    10482.492 
    6680    303.58057   -10384.406            0   -10354.308   -552.27335    10468.271 
    6690    301.78225   -10384.703            0   -10354.784    3831.2597    10447.938 
    6700    285.93149   -10383.496            0   -10355.148    -928.8623    10476.836 
    6710    294.16974   -10384.716            0   -10355.551   -5444.1336    10489.713 
    6720    288.21315   -10384.339            0   -10355.765     5516.663     10439.01 
    6730    286.79805   -10384.308            0   -10355.874    2755.6847    10455.389 
    6740    282.02239    -10383.86            0     -10355.9   -7895.9225    10506.213 
    6750    295.00196   -10385.018            0   -10355.771    1001.5042    10459.003 
    6760    291.79477   -10384.498            0   -10355.569    8431.3232    10424.919 
    6770    296.40277   -10384.881            0   -10355.494   -5440.5565    10493.001 
    6780    291.21656   -10384.018            0   -10355.146   -5491.0628    10495.515 
    6790    282.73517   -10382.934            0   -10354.903    7916.6347    10429.694 
    6800    294.12712   -10383.764            0   -10354.604    1596.2101    10459.861 
    6810    295.13758   -10383.471            0    -10354.21   -8203.5006    10510.159 
    6820    292.32173   -10383.061            0   -10354.079    2424.3331    10458.044 
    6830    302.26116   -10383.704            0   -10353.737    6525.7041    10436.673 
    6840    310.66387   -10384.525            0   -10353.725   -5599.3431     10495.27 
    6850    288.93361   -10382.294            0   -10353.649   -2652.9632    10486.291 
    6860    299.83248   -10383.253            0   -10353.526    5746.2845    10442.296 
    6870    309.93921   -10384.345            0   -10353.617   -450.08755    10468.316 
    6880    301.81235   -10383.443            0   -10353.521   -4138.9003    10491.273 
    6890    304.72107   -10383.784            0   -10353.573    1900.6602    10462.559 
    6900    294.42272     -10382.8            0   -10353.611    2534.1626    10457.809 
    6910    299.14096   -10383.293            0   -10353.636   -2584.2037    10482.789 
    6920    296.62515   -10383.138            0    -10353.73   -1065.2898    10474.526 
    6930    304.72866   -10383.898            0   -10353.687    2576.3738    10454.785 
    6940    289.90059   -10382.452            0   -10353.711    437.56779    10469.422 
    6950    307.53061   -10384.223            0   -10353.734   -3193.6277    10484.646 
    6960    296.79832   -10383.142            0   -10353.717    1355.4176     10463.07 
    6970    292.39792   -10382.705            0   -10353.716    2249.7326    10459.504 
    6980    299.53796   -10383.351            0   -10353.654   -2518.7635    10481.342 
    6990    301.27425   -10383.409            0    -10353.54   -322.56686    10474.614 
    7000    319.12466   -10385.106            0   -10353.467    865.82261     10459.21 
    7010    296.97503   -10382.836            0   -10353.393    1739.9909    10462.512 
    7020    303.17033   -10383.397            0    -10353.34   -2426.3114     10484.49 
    7030    297.20071   -10382.795            0    -10353.33   -473.23072    10475.548 
    7040    308.90635   -10383.864            0   -10353.239    1746.6376    10460.015 
    7050    291.81535   -10382.118            0   -10353.187    227.59454    10469.678 
    7060    300.88185   -10382.955            0   -10353.125   -1495.7547    10479.987 
    7070    308.65982   -10383.637            0   -10353.036    238.48346    10471.281 
    7080    295.65494   -10382.256            0   -10352.944    935.29876    10466.856 
    7090    307.93996   -10383.392            0   -10352.862   -725.90132    10471.103 
    7100    312.06146    -10383.81            0   -10352.871    808.81178    10468.346 
    7110    296.58479    -10382.33            0   -10352.926    -648.8583    10475.224 
    7120    293.35797    -10382.02            0   -10352.936   -646.23404    10474.258 
    7130    300.57231   -10382.772            0   -10352.973    1329.7886    10464.497 
    7140    316.08555   -10384.337            0   -10352.999   -453.29172    10471.181 
    7150     302.0861   -10383.038            0   -10353.088   -889.99646    10474.869 
    7160    308.46881   -10383.908            0   -10353.326    660.75566    10464.363 
    7170    302.78529   -10383.641            0   -10353.622    1667.1453    10464.747 
    7180    295.26772   -10383.224            0    -10353.95   -3075.0544    10484.883 
    7190    292.92009   -10383.324            0   -10354.283   -412.01835    10466.886 
    7200    295.30086   -10383.836            0   -10354.559    4614.1323    10444.545 
    7210     302.0994   -10384.854            0   -10354.903   -2168.7822    10478.883 
    7220    294.05197   -10384.248            0   -10355.095   -3777.4477    10489.033 
    7230    281.18923   -10383.163            0   -10355.285    3727.5178    10451.641 
    7240    293.92592   -10384.551            0    -10355.41    1921.4182    10458.085 
    7250    291.31571   -10384.293            0   -10355.411   -4519.4556    10488.847 
    7260    287.00271   -10383.889            0   -10355.435    372.29928    10464.308 
    7270    284.27256   -10383.422            0   -10355.238    5162.1026    10445.641 
    7280    300.85796   -10384.803            0   -10354.975   -4359.4989    10486.827 
    7290    288.39496   -10383.168            0   -10354.576   -2036.8541    10478.525 
    7300    305.45099   -10384.229            0   -10353.946    5315.6738    10442.445 
    7310    312.94099   -10384.495            0   -10353.469   -853.30971    10470.371 
    7320     299.2514   -10382.658            0   -10352.989   -3849.9333    10491.596 
    7330    294.35714   -10381.799            0   -10352.616    2154.8143    10464.409 
    7340    301.38513   -10382.258            0   -10352.378    1986.1814    10461.342 
    7350    312.48598   -10383.135            0   -10352.154   -3033.4579    10483.854 
    7360    321.48579    -10384.02            0   -10352.147   -456.85587    10467.847 
    7370    304.59907   -10382.422            0   -10352.224     4910.465    10451.164 
    7380    297.80662   -10381.803            0   -10352.278   -4078.2936    10491.828 
    7390     308.1418   -10383.031            0   -10352.481   -2588.7114    10479.668 
    7400    310.92992   -10383.396            0   -10352.569    7103.9544    10438.217 
    7410    298.68464    -10382.42            0   -10352.807   -2325.6307    10483.084 
    7420    304.35817   -10383.168            0   -10352.993   -5872.8355      10499.1 
    7430    301.79863   -10383.082            0   -10353.161    5773.0128     10443.16 
    7440    300.99796   -10383.255            0   -10353.414     2538.669    10459.233 
    7450    290.45518   -10382.328            0   -10353.531   -7026.2917    10506.725 
    7460    302.85314   -10383.777            0   -10353.752    876.28631    10463.718 
    7470    302.80003   -10383.914            0   -10353.893    7300.8633    10435.036 
    7480    302.51194   -10384.069            0   -10354.078   -5515.3918    10494.646 
    7490    297.75715   -10383.802            0   -10354.281   -3622.0628    10487.754 
    7500    289.31032   -10383.114            0   -10354.431    6989.4624    10436.417 
    7510    303.64481   -10384.719            0   -10354.615   -721.68992     10468.36 
    7520    293.59612   -10383.928            0    -10354.82   -4623.6946    10494.158 
    7530    278.78832   -10382.661            0   -10355.021    2462.1801    10461.505 
    7540    297.81006   -10384.691            0   -10355.166    2221.6265     10456.89 
    7550    292.65503   -10384.379            0   -10355.364   -3022.7125    10482.077 
    7560    285.84555   -10383.882            0   -10355.543   -392.07661    10469.498 
    7570    297.75713   -10385.327            0   -10355.807    3094.3411    10449.878 
    7580    285.12614   -10384.343            0   -10356.075   -763.44937    10471.588 
    7590    278.30705   -10383.752            0    -10356.16   -3162.6175    10483.991 
    7600    284.47225   -10384.394            0   -10356.191    2066.7077    10456.496 
    7610    291.14051   -10384.942            0   -10356.077    2255.7515    10453.693 
    7620    306.47285   -10386.313            0   -10355.929   -2826.1123    10477.882 
    7630    292.47289   -10384.767            0    -10355.77   -194.81669    10469.873 
    7640    283.56591   -10383.591            0   -10355.478    1841.8337      10458.3 
    7650    290.06561   -10383.872            0   -10355.114   -356.69788    10470.511 
    7660    288.26501   -10383.209            0    -10354.63   -1702.1824    10476.684 
    7670    299.51293   -10383.835            0   -10354.141     1544.444    10462.147 
    7680    304.21209    -10383.91            0   -10353.749    628.96218    10466.173 
    7690    302.22135   -10383.372            0   -10353.409   -1714.8782    10478.093 
    7700    305.99793   -10383.548            0    -10353.21     420.2486    10469.089 
    7710    304.64706   -10383.236            0   -10353.033    932.17964    10465.833 
    7720    293.64506   -10382.011            0   -10352.898   -501.82203    10475.374 
    7730    303.39988   -10382.884            0   -10352.804   -1584.6378    10475.768 
    7740    311.27449   -10383.528            0   -10352.667    1903.1516    10458.852 
    7750    295.50934   -10381.917            0    -10352.62    1634.9456    10469.447 
    7760    312.65044   -10383.557            0    -10352.56   -4959.2809     10494.42 
    7770     305.4953    -10382.89            0   -10352.602    2374.9794    10460.841 
    7780    298.32914   -10382.263            0   -10352.685    3603.8904     10457.52 
    7790    302.63757   -10382.728            0   -10352.724   -5380.0566    10496.245 
    7800    310.56632   -10383.682            0   -10352.891    402.34261    10470.477 
    7810    312.29473   -10384.088            0   -10353.126    4117.1901    10447.855 
    7820    301.54919   -10383.445            0   -10353.549   -1800.7127    10478.139 
    7830    296.05098   -10383.423            0   -10354.072   -3158.2402    10486.644 
    7840    290.32221    -10383.37            0   -10354.587    2412.9723    10454.211 
    7850    291.50944   -10383.894            0   -10354.993    2899.0817     10453.33 
    7860     292.8683   -10384.345            0   -10355.309   -3939.0117    10488.012 
    7870    289.55376   -10384.214            0   -10355.507   -781.08363    10473.706 
    7880    296.29347   -10384.968            0   -10355.593     3471.846    10447.277 
    7890    288.23045   -10384.208            0   -10355.632   -140.19998    10468.224 
    7900     290.5588    -10384.34            0   -10355.533   -3662.1623    10486.021 
    7910    292.58489   -10384.494            0   -10355.486    1851.8469    10457.505 
    7920    289.44931   -10383.996            0   -10355.299    3189.5505    10453.203 
    7930    285.09733   -10383.363            0   -10355.098   -3656.1941    10487.247 
    7940    295.35672   -10384.186            0   -10354.903   -1836.6564    10474.803 
    7950    298.10446   -10384.134            0   -10354.579    5299.8014    10441.397 
    7960    300.04144    -10384.19            0   -10354.443   -956.06928    10472.797 
    7970    299.73967   -10383.945            0   -10354.228   -4821.1092     10493.82 
    7980    291.44724   -10382.988            0   -10354.093    3265.6469    10454.044 
    7990    300.40487   -10383.767            0   -10353.985    2868.5303     10452.85 
    8000    300.30035   -10383.592            0    -10353.82   -4025.2926    10490.164 
    8010    298.98379   -10383.416            0   -10353.774   -1418.0084    10475.961 
    8020    296.81734   -10383.083            0   -10353.656    5500.7406     10444.98 
    8030    305.82537   -10383.925            0   -10353.605   -2069.3595    10480.049 
    8040    305.29131   -10383.884            0   -10353.616   -4952.2799    10489.134 
    8050    290.79219   -10382.366            0   -10353.536    6479.1408    10441.045 
    8060    301.16559   -10383.408            0    -10353.55    473.22844    10469.647 
    8070     288.4361   -10382.019            0   -10353.422   -6945.3555    10506.162 
    8080    304.87291   -10383.524            0   -10353.298    3134.5846    10455.115 
    8090    309.15001   -10383.846            0   -10353.196    5519.9498    10442.271 
    8100    306.98396   -10383.564            0   -10353.129   -5726.2525    10499.099 
    8110     306.7546   -10383.562            0   -10353.149   -3062.6911    10483.339 
    8120    303.71121   -10383.286            0   -10353.175    8240.0306    10432.506 
    8130    295.27154   -10382.608            0   -10353.334   -1975.9004      10481.9 
    8140    290.66073   -10382.235            0   -10353.418    -7144.927    10506.005 
    8150    304.29337   -10383.775            0   -10353.607    5974.2283    10441.193 
    8160    305.13913   -10384.094            0   -10353.841    3866.2131     10451.25 
    8170    290.90592    -10382.99            0   -10354.149   -7482.0227    10510.184 
    8180    302.70316   -10384.587            0   -10354.576   -795.00786    10472.867 
    8190    285.16377   -10383.085            0   -10354.813    8469.6378    10431.184 
    8200    296.41256   -10384.565            0   -10355.178   -4772.7776    10488.667 
    8210    287.30453   -10383.845            0    -10355.36   -4024.3037    10490.391 
    8220    290.76868   -10384.321            0   -10355.493    5895.1126    10441.029 
    8230    296.72664   -10385.006            0   -10355.588    57.695958    10463.925 
    8240    288.78161   -10384.179            0   -10355.549   -4702.6658    10490.259 
    8250    291.10609   -10384.413            0   -10355.552    2555.1077    10457.491 
    8260     293.7611   -10384.525            0   -10355.401    2658.4445    10455.885 
    8270    288.43165   -10383.771            0   -10355.175   -4133.9065    10487.351 
    8280    291.05506   -10383.741            0   -10354.885   -102.04995    10466.952 
    8290    294.58798   -10383.628            0   -10354.422    4809.0508    10447.849 
    8300    301.20032   -10383.854            0   -10353.992   -3198.4055    10485.095 
    8310     308.5057   -10384.171            0   -10353.585   -2738.6947    10481.905 
    8320    304.45106   -10383.434            0    -10353.25    5306.5482    10447.521 
[...]
   22900    283.64426   -10382.639            0   -10354.518    3123.2017    10455.481 
   22910    298.26687   -10384.059            0   -10354.488   -2219.8091    10478.696 
   22920    307.90952   -10385.117            0   -10354.591   -1831.0436    10474.558 
   22930    297.07353   -10384.025            0   -10354.573    3348.9057     10449.57 
   22940     295.3625   -10383.837            0   -10354.554   -123.90233    10465.326 
   22950    281.21954   -10382.485            0   -10354.604   -1912.7354    10482.272 
   22960     300.2689    -10384.18            0    -10354.41   -818.47787    10470.819 
   22970    295.11843   -10383.469            0    -10354.21    3279.8482    10451.322 
   22980    310.68679   -10384.705            0   -10353.902   -440.34983    10471.995 
   22990    306.72412   -10383.755            0   -10353.346   -3503.5307    10487.072 
   23000    302.05538   -10382.892            0   -10352.945    2431.2937    10459.785 
   23010    301.39209   -10382.207            0   -10352.327    1903.8704     10460.83 
   23020    306.92223   -10382.257            0   -10351.828   -2424.9764    10487.455 
   23030    302.11065   -10381.469            0   -10351.517   -1535.6721    10483.407 
   23040    313.33803   -10382.132            0   -10351.067    2559.0637    10459.476 
   23050     311.7081     -10381.9            0   -10350.997    1132.0878    10468.565 
   23060    309.45097   -10381.605            0   -10350.925   -3133.3103     10492.35 
   23070    319.54478   -10382.633            0   -10350.953   -342.25793    10475.257 
   23080    319.89947    -10382.95            0   -10351.235    3039.4812     10453.21 
   23090    303.37057   -10381.541            0   -10351.464    218.02021    10471.403 
   23100    301.50518   -10381.723            0   -10351.831   -2779.2282    10491.356 
   23110    299.87187   -10381.896            0   -10352.166   -478.41057    10472.953 
   23120    315.61518    -10383.66            0    -10352.37    3719.0775    10449.894 
   23130    306.37398   -10383.143            0   -10352.769   -617.76127    10476.655 
   23140    301.56845   -10382.844            0   -10352.946   -4643.1051    10493.041 
   23150    304.75075   -10383.395            0   -10353.181     3634.366    10452.776 
   23160    307.58365   -10383.986            0   -10353.492    2160.2298    10456.581 
   23170    298.79414   -10383.207            0   -10353.584   -4079.6539    10488.651 
   23180    288.68413   -10382.381            0    -10353.76    207.04926    10471.636 
   23190    310.36176   -10384.585            0   -10353.815    2541.6827    10454.023 
   23200    299.12505   -10383.534            0   -10353.878   -335.49813    10470.938 
   23210     297.1916   -10383.509            0   -10354.044   -2581.7801     10481.38 
   23220    301.74887   -10383.994            0   -10354.077    1575.9391     10459.81 
   23230     292.2732   -10383.112            0   -10354.136    1939.3174    10461.369 
   23240    293.47382   -10383.234            0   -10354.138   -3370.8209    10483.388 
   23250    303.95196    -10384.24            0   -10354.105    957.34554    10464.426 
   23260     302.9062   -10384.159            0   -10354.129    2041.9416    10458.115 
   23270    286.31961   -10382.415            0   -10354.028   -2012.2222     10478.59 
   23280    292.88452    -10382.95            0   -10353.913   -417.99227    10472.314 
   23290    304.61938   -10383.955            0   -10353.754    1616.3272    10459.272 
   23300    306.29284   -10383.796            0   -10353.429    13.276043    10468.671 
   23310    305.05861   -10383.353            0   -10353.109   -1836.7802    10476.002 
   23320    310.54385   -10383.505            0   -10352.717    1623.1726    10462.024 
   23330    303.07625   -10382.307            0    -10352.26    1130.5452    10469.068 
   23340    306.63095   -10382.226            0   -10351.826   -3410.3432    10487.903 
   23350    305.79414   -10381.657            0    -10351.34    1159.6357     10466.72 
   23360    305.58662   -10381.239            0   -10350.943    3103.0377    10460.996 
   23370    313.98699   -10381.812            0   -10350.682   -3813.1317    10490.758 
   23380    328.70335   -10383.109            0   -10350.521   -829.68402    10473.986 
   23390    312.36412   -10381.499            0    -10350.53    4955.6129     10450.87 
   23400    319.71695   -10382.446            0   -10350.749   -2449.9802    10484.738 
   23410    312.90901   -10382.047            0   -10351.025   -3202.4537    10488.904 
   23420    306.24894   -10381.785            0   -10351.423    4080.1829    10454.726 
   23430    307.03764   -10382.253            0   -10351.812    577.88975    10469.331 
   23440    316.18286   -10383.518            0   -10352.171   -4159.1632    10490.441 
   23450    304.65225   -10382.736            0   -10352.532    2221.8208     10463.32 
   23460    300.18446   -10382.536            0   -10352.775    2066.9456    10461.868 
   23470    305.93475   -10383.327            0   -10352.996   -3335.2074    10485.053 
   23480    304.17111   -10383.354            0   -10353.198    144.04993    10467.979 
   23490     292.1753   -10382.255            0   -10353.288    3598.2943      10454.6 
   23500    301.65342   -10383.326            0   -10353.419   -2917.3823     10482.43 
   23510    305.37967   -10383.789            0   -10353.513   -1101.1342    10475.892 
   23520    304.35281   -10383.779            0   -10353.604    2525.6541    10454.929 
   23530    302.80852   -10383.791            0    -10353.77     326.9198    10467.016 
   23540    294.80504   -10383.137            0    -10353.91   -2526.6831    10481.649 
   23550    298.83968   -10383.719            0   -10354.091    803.20793    10464.438 
   23560    295.87537   -10383.547            0   -10354.213    2331.3996    10458.663 
   23570    284.16055   -10382.448            0   -10354.276   -2357.4388    10481.534 
   23580    306.36145   -10384.707            0   -10354.334   -1409.6481    10473.677 
   23590    298.91746   -10383.965            0   -10354.329    3647.3174    10450.196 
   23600    285.34249   -10382.646            0   -10354.356   -203.51882    10473.369 
   23610    295.77039   -10383.626            0   -10354.302   -4390.9904    10490.313 
   23620    303.30325   -10384.249            0   -10354.179    2678.0519    10453.389 
   23630    298.10548   -10383.543            0   -10353.988    3350.0289    10451.212 
   23640    303.44491   -10383.831            0   -10353.747   -4148.5185    10489.041 
   23650    307.85189   -10384.007            0   -10353.485   -1742.0771    10474.926 
   23660    299.69454   -10382.834            0   -10353.121    5502.7293    10441.838 
   23670     299.3309   -10382.499            0   -10352.823   -658.66153    10475.463 
   23680    317.73637   -10383.953            0   -10352.452   -5972.3433    10499.013 
   23690     308.8322   -10382.791            0   -10352.173    4185.3953    10451.264 
   23700    303.22188   -10382.022            0    -10351.96     3834.155    10453.676 
   23710    302.33986   -10381.744            0   -10351.769   -6402.1267    10503.015 
   23720    305.36185    -10381.95            0   -10351.676   -390.92439    10473.054 
   23730    307.65427    -10381.98            0   -10351.478    7091.3586    10439.427 
   23740    313.96359   -10382.576            0   -10351.449   -4309.1406    10491.823 
   23750    309.33338    -10382.11            0   -10351.442   -4305.8264    10492.184 
   23760    315.28993   -10382.799            0    -10351.54    7091.9676    10438.808 
   23770    324.32247    -10384.07            0   -10351.916   -476.57316    10471.046 
   23780    297.32439   -10381.844            0   -10352.367   -5800.1075    10501.035 
   23790     297.8518   -10382.562            0   -10353.032    3525.4113    10457.231 
   23800    297.10089   -10382.999            0   -10353.543    2564.7322    10453.986 
   23810    300.82798    -10383.75            0   -10353.925   -3587.6998    10486.412 
   23820    297.26535    -10383.68            0   -10354.208   -800.36964    10474.738 
   23830     299.8333   -10384.091            0   -10354.365    3301.3957    10451.196 
   23840    292.88316   -10383.568            0    -10354.53   -57.876437    10469.982 
   23850    293.25619   -10383.665            0   -10354.591   -3855.4022    10486.011 
   23860    302.68258   -10384.626            0   -10354.617    2331.6963    10455.142 
   23870    290.89749   -10383.467            0   -10354.627    2837.3426    10454.008 
   23880    297.51594   -10384.086            0    -10354.59   -3955.7359    10486.195 
   23890    293.47813   -10383.652            0   -10354.555   -166.55936    10471.155 
   23900    299.76722   -10384.151            0   -10354.431    2994.6917      10451.7 
   23910    288.08408   -10382.846            0   -10354.284   -476.68861     10472.36 
   23920    303.49389   -10384.185            0   -10354.096   -3222.7209     10484.18 
   23930    313.13201   -10384.946            0   -10353.901    2223.2019    10456.599 
   23940    298.59086   -10383.304            0   -10353.701    2362.5602    10458.004 
   23950    289.79473   -10382.213            0   -10353.482   -3541.7084    10488.937 
   23960    295.40653   -10382.468            0   -10353.181   -357.87273    10475.391 
   23970     306.3847   -10383.124            0   -10352.748    3089.8063    10455.091 
   23980     307.5812   -10382.772            0   -10352.278   -1134.2824    10475.276 
   23990    312.04811   -10382.725            0   -10351.788   -1898.6126    10482.248 
   24000    317.77263   -10382.976            0   -10351.471    2254.4277    10464.237 
   24010    316.88248   -10382.705            0   -10351.288   -243.96133    10472.864 
   24020    300.33082   -10380.981            0   -10351.206     -1389.36    10481.173 
   24030    312.70876   -10382.238            0   -10351.235    725.76599    10469.461 
   24040    312.92048    -10382.33            0   -10351.307    1111.1101    10467.043 
   24050     308.1985   -10382.079            0   -10351.524   -1164.2033    10478.924 
   24060    297.73668   -10381.328            0    -10351.81   -657.59382    10477.228 
   24070     294.9609   -10381.354            0    -10352.11    1570.5628     10466.98 
   24080    316.24642   -10383.954            0     -10352.6   -983.92187    10472.931 
   24090    306.81725   -10383.676            0   -10353.257   -274.33332    10470.499 
   24100    304.53599   -10384.211            0   -10354.018    666.43339     10463.48 
   24110    298.17201   -10384.261            0   -10354.699    66.364625    10464.495 
   24120     291.3291   -10383.897            0   -10355.014    149.14037    10467.211 
   24130    296.21644   -10384.542            0   -10355.174   -745.67276    10470.665 
   24140    287.90287   -10383.754            0    -10355.21     241.7622    10466.085 
   24150    292.35768   -10384.128            0   -10355.143    693.49906    10463.293 
   24160     294.3476   -10384.287            0   -10355.105   -545.09684    10469.277 
   24170    290.11902    -10383.68            0   -10354.917   -440.68419    10469.071 
   24180    290.41056   -10383.519            0   -10354.726    886.84347    10462.812 
   24190    298.13911    -10384.06            0   -10354.502    426.79246    10468.433 
   24200    293.50612   -10383.225            0   -10354.126   -2162.5568    10477.825 
   24210    301.43815   -10383.762            0   -10353.876    924.86493    10460.452 
   24220    305.78366   -10383.844            0   -10353.527    2487.8683    10456.103 
   24230    305.76709   -10383.523            0   -10353.209   -2918.8071    10483.124 
   24240    303.29089   -10383.117            0   -10353.048   -1072.6391    10473.854 
   24250    311.04757   -10383.626            0   -10352.788    3435.7914    10448.925 
   24260    290.37803   -10381.529            0    -10352.74    868.56657    10470.903 
   24270    304.19439   -10382.742            0   -10352.583   -5113.7548      10499.5 
   24280    309.17368    -10383.09            0   -10352.437    1580.1303    10465.527 
   24290    306.74814   -10382.795            0   -10352.383    3908.6233    10450.477 
   24300     300.4397   -10382.077            0    -10352.29   -2971.9307    10485.688 
   24310    312.29484   -10383.265            0   -10352.304   -2396.3538    10483.025 
   24320    307.49947    -10382.88            0   -10352.394    3982.5137    10450.502 
   24330    317.52016   -10384.014            0   -10352.534    420.79924    10467.782 
   24340    301.33872   -10382.783            0   -10352.908   -4149.5293    10491.544 
   24350    287.94134   -10381.868            0   -10353.321    1956.0787     10463.88 
   24360    303.30636   -10383.803            0   -10353.733    2512.0877    10456.736 
   24370    301.03976    -10384.11            0   -10354.264   -2921.0329    10482.449 
   24380    289.41768   -10383.294            0     -10354.6   -561.43102    10473.915 
   24390    289.19265   -10383.595            0   -10354.924    2551.0277    10456.249 
   24400    289.58168   -10383.868            0   -10355.158   -235.45749    10470.025 
   24410    289.04215   -10383.821            0   -10355.164   -2689.8951    10479.781 
   24420     299.7452       -10385            0   -10355.282    1837.7063    10456.573 
   24430    294.09079   -10384.353            0   -10355.196    1822.9765    10457.326 
   24440    294.53662   -10384.325            0   -10355.124   -2923.1202     10480.36 
   24450    298.14625   -10384.684            0   -10355.125   -86.450919     10466.88 
   24460    293.22765   -10383.985            0   -10354.914    3290.8108    10454.872 
   24470    296.42048   -10384.236            0   -10354.848    -2544.325    10480.668 
   24480    282.48346   -10382.694            0   -10354.688   -1334.4231    10475.196 
   24490    302.58265   -10384.412            0   -10354.413    3185.3385    10453.169 
   24500     286.8076   -10382.674            0   -10354.239   -578.63354    10471.203 
   24510      296.288   -10383.287            0   -10353.912   -2422.1161    10481.774 
   24520    305.78405   -10384.009            0   -10353.693    1476.0916    10462.713 
   24530     298.9475   -10383.194            0   -10353.555    1389.1142    10462.394 
   24540    305.94904   -10383.745            0   -10353.413   -2154.9541    10477.243 
   24550    300.43035   -10383.213            0   -10353.428    544.83066     10468.45 
   24560    300.13543   -10383.133            0   -10353.377    959.80135    10464.511 
   24570    305.48882   -10383.649            0   -10353.362   -1041.1998    10471.616 
   24580    303.48964   -10383.513            0   -10353.425     339.3484    10468.418 
   24590    296.91501   -10382.838            0   -10353.401     264.8918    10468.026 
   24600    295.88335   -10382.788            0   -10353.453   -77.408253    10471.583 
   24610    310.50545   -10384.283            0   -10353.498   -716.54755    10471.678 
   24620    300.02535   -10383.286            0   -10353.541    812.85704    10464.382 
   24630    302.33137   -10383.633            0   -10353.659   -190.54929      10467.1 
   24640    301.43768   -10383.613            0   -10353.727   -280.14272    10468.355 
   24650    286.91391    -10382.29            0   -10353.845    979.16849    10468.054 
   24660    296.07845   -10383.276            0   -10353.922   -1458.8307    10476.775 
   24670    312.94951   -10384.961            0   -10353.934   -366.29463    10466.319 
   24680    291.69105   -10382.962            0   -10354.043    2695.1546    10456.111 
   24690    296.69372   -10383.542            0   -10354.127   -1315.4548    10477.929 
   24700    295.98209   -10383.597            0   -10354.252   -2654.2507    10479.326 
   24710    299.50128   -10384.125            0   -10354.432    3538.4949    10451.241 
   24720    294.44082   -10383.745            0   -10354.554    504.31152    10467.277 
   24730    294.90384   -10383.961            0   -10354.723   -4249.8497    10487.638 
   24740    285.73694   -10383.192            0   -10354.864    2218.4521     10458.55 
   24750    297.80013   -10384.421            0   -10354.897    2495.1957     10453.71 
   24760    292.85473   -10384.062            0   -10355.027   -2495.3193    10482.178 
   24770    288.81414    -10383.62            0   -10354.986   -2439.2243     10478.13 
   24780    305.98797   -10385.251            0   -10354.914    4360.2063    10444.392 
   24790    292.91499   -10383.996            0   -10354.956    539.04794    10464.646 
   24800    292.40074   -10383.778            0   -10354.789   -4678.3405    10491.093 
   24810    291.52282   -10383.578            0   -10354.676    2005.7871    10460.328 
   24820    300.29905    -10384.17            0   -10354.398    2521.9228    10452.615 
   24830    302.37157   -10384.023            0   -10354.045   -2647.8098    10478.296 
   24840    294.24808   -10382.915            0   -10353.742   -258.20542    10471.875 
   24850    305.69995   -10383.676            0   -10353.368    2059.5438    10460.276 
   24860    295.51869   -10382.333            0   -10353.035    -1131.643    10473.208 
   24870    301.26048   -10382.595            0   -10352.727   -35.146996    10475.032 
   24880    312.28526   -10383.364            0   -10352.403   -313.17294    10472.821 
   24890    304.42173   -10382.387            0   -10352.206    630.48429    10469.823 
   24900    303.83915   -10382.169            0   -10352.045   -176.73202    10473.588 
   24910    310.82395   -10382.762            0   -10351.946     -781.518    10473.641 
   24920    306.31077   -10382.303            0   -10351.934    1233.7943     10467.17 
   24930    316.89065   -10383.392            0   -10351.975   -822.25184    10472.143 
   24940    317.86431   -10383.695            0   -10352.181    326.06424    10469.441 
   24950    302.07205   -10382.455            0   -10352.506     172.6672    10470.807 
   24960    299.49193   -10382.581            0   -10352.889   -592.79253    10473.678 
   24970    294.32963   -10382.489            0   -10353.309    3.3917103      10468.9 
   24980    293.10389   -10382.705            0   -10353.646    601.78712    10464.507 
   24990    290.77996   -10382.776            0   -10353.947    782.64284    10469.132 
   25000    307.23151   -10384.654            0   -10354.194   -2488.0522    10478.648 
   25004    297.86171    -10383.79            0   -10354.259    -1402.222    10474.195 
Loop time of 69.2678 on 8 procs for 25000 steps with 768 atoms

Performance: 62.367 ns/day, 0.385 hours/ns, 360.918 timesteps/s
98.8% CPU use with 8 MPI tasks x 1 OpenMP threads

MPI task timing breakdown:
Section |  min time  |  avg time  |  max time  |%varavg| %total
---------------------------------------------------------------
Pair    | 42.367     | 43.779     | 45.226     |  13.6 | 63.20
Bond    | 0.0029833  | 0.0034437  | 0.0038283  |   0.4 |  0.00
Kspace  | 13.319     | 14.767     | 16.178     |  23.4 | 21.32
Neigh   | 0          | 0          | 0          |   0.0 |  0.00
Comm    | 2.135      | 2.1397     | 2.1473     |   0.2 |  3.09
Output  | 0.05917    | 0.069814   | 0.1413     |  10.2 |  0.10
Modify  | 5.6849     | 6.2543     | 7.8927     |  25.4 |  9.03
Other   |            | 2.254      |            |       |  3.25

Nlocal:        96.0000 ave          96 max          96 min
Histogram: 8 0 0 0 0 0 0 0 0 0
Nghost:        3747.00 ave        3747 max        3747 min
Histogram: 8 0 0 0 0 0 0 0 0 0
Neighs:        32128.0 ave       34164 max       30064 min
Histogram: 2 0 1 1 0 0 1 1 0 2

Total # of neighbors = 257024
Ave neighs/atom = 334.66667
Ave special neighs/atom = 0.0000000
Neighbor list builds = 0
Dangerous builds = 0
Total wall time: 0:01:09
